
                                 *****************
                                 * O   R   C   A *
                                 *****************

           --- An Ab Initio, DFT and Semiempirical electronic structure package ---

                  #######################################################
                  #                        -***-                        #
                  #          Department of theory and spectroscopy      #
                  #               Directorship: Frank Neese             #
                  #        Max Planck Institute fuer Kohlenforschung    #
                  #                Kaiser Wilhelm Platz 1               #
                  #                 D-45470 Muelheim/Ruhr               #
                  #                      Germany                        #
                  #                                                     #
                  #                  All rights reserved                #
                  #                        -***-                        #
                  #######################################################


                         Program Version 4.2.0 -  RELEASE  -


 With contributions from (in alphabetic order):
   Daniel Aravena         : Magnetic Suceptibility
   Michael Atanasov       : Ab Initio Ligand Field Theory (pilot matlab implementation)
   Alexander A. Auer      : GIAO ZORA, VPT2
   Ute Becker             : Parallelization
   Giovanni Bistoni       : ED, misc. LED, open-shell LED, HFLED
   Martin Brehm           : Molecular dynamics
   Dmytro Bykov           : SCF Hessian
   Vijay G. Chilkuri      : MRCI spin determinant printing, contributions to CSF-ICE
   Dipayan Datta          : RHF DLPNO-CCSD density
   Achintya Kumar Dutta   : EOM-CC, STEOM-CC
   Dmitry Ganyushin       : Spin-Orbit,Spin-Spin,Magnetic field MRCI
   Miquel Garcia          : C-PCM Hessian, Gaussian charge scheme
   Yang Guo               : DLPNO-NEVPT2, CIM, IAO-localization
   Andreas Hansen         : Spin unrestricted coupled pair/coupled cluster methods
   Benjamin Helmich-Paris : CASSCF linear response (MC-RPA)
   Lee Huntington         : MR-EOM, pCC
   Robert Izsak           : Overlap fitted RIJCOSX, COSX-SCS-MP3, EOM
   Christian Kollmar      : KDIIS, OOCD, Brueckner-CCSD(T), CCSD density
   Simone Kossmann        : Meta GGA functionals, TD-DFT gradient, OOMP2, MP2 Hessian
   Martin Krupicka        : AUTO-CI
   Lucas Lang             : DCDCAS
   Dagmar Lenk            : GEPOL surface, SMD
   Dimitrios Liakos       : Extrapolation schemes; Compound Job, initial MDCI parallelization
   Dimitrios Manganas     : Further ROCIS development; embedding schemes
   Dimitrios Pantazis     : SARC Basis sets
   Taras Petrenko         : DFT Hessian,TD-DFT gradient, ASA, ECA, R-Raman, ABS, FL, XAS/XES, NRVS
   Peter Pinski           : DLPNO-MP2, DLPNO-MP2 Gradient
   Christoph Reimann      : Effective Core Potentials
   Marius Retegan         : Local ZFS, SOC
   Christoph Riplinger    : Optimizer, TS searches, QM/MM, DLPNO-CCSD(T), (RO)-DLPNO pert. Triples
   Tobias Risthaus        : Range-separated hybrids, TD-DFT gradient, RPA, STAB
   Michael Roemelt        : Original ROCIS implementation
   Masaaki Saitow         : Open-shell DLPNO-CCSD energy and density
   Barbara Sandhoefer     : DKH picture change effects
   Avijit Sen             : IP-ROCIS
   Kantharuban Sivalingam : CASSCF convergence, NEVPT2, FIC-MRCI
   Bernardo de Souza      : ESD, SOC TD-DFT
   Georgi Stoychev        : AutoAux, RI-MP2 NMR
   Willem Van den Heuvel  : Paramagnetic NMR
   Boris Wezisla          : Elementary symmetry handling
   Frank Wennmohs         : Technical directorship


 We gratefully acknowledge several colleagues who have allowed us to
 interface, adapt or use parts of their codes:
   Stefan Grimme, W. Hujo, H. Kruse,             : VdW corrections, initial TS optimization,
                  C. Bannwarth                     DFT functionals, gCP, sTDA/sTD-DF
   Ed Valeev, F. Pavosevic, A. Kumar             : LibInt (2-el integral package), F12 methods
   Garnet Chan, S. Sharma, J. Yang, R. Olivares  : DMRG
   Ulf Ekstrom                                   : XCFun DFT Library
   Mihaly Kallay                                 : mrcc  (arbitrary order and MRCC methods)
   Andreas Klamt, Michael Diedenhofen            : otool_cosmo (COSMO solvation model)
   Jiri Pittner, Ondrej Demel                    : Mk-CCSD
   Frank Weinhold                                : gennbo (NPA and NBO analysis)
   Christopher J. Cramer and Donald G. Truhlar   : smd solvation model
   Lars Goerigk                                  : TD-DFT with DH, B97 family of functionals
   V. Asgeirsson, H. Jonsson                     : NEB implementation
   FAccTs GmbH                                   : IRC, NEB, NEB-TS, Multilevel, MM, QM/MM, CI optimization
   S Lehtola, MJT Oliveira, MAL Marques          : LibXC Library


 Your calculation uses the libint2 library for the computation of 2-el integrals
 For citations please refer to: http://libint.valeyev.net

 Your ORCA version has been built with support for libXC version: 4.2.3
 For citations please refer to: https://tddft.org/programs/libxc/

 This ORCA versions uses:
   CBLAS   interface :  Fast vector & matrix operations
   LAPACKE interface :  Fast linear algebra routines
   SCALAPACK package :  Parallel linear algebra routines


Your calculation utilizes the atom-pairwise dispersion correction
with the zero-damping scheme (D30)
Cite in your paper:
S.Grimme, J.Antony, S.Ehrlich and H.Krieg, J.Chem.Phys., 132, (2010), 154104 
   

XCFun DFT library Copyright 2009-2010 Ulf Ekstrom and contributors.
See http://admol.org/xcfun for more information. This is free soft-
ware; see the source code for copying conditions. There is ABSOLUTELY
NO WARRANTY; not even for MERCHANTABILITY or FITNESS FOR A PARTICULAR
PURPOSE. For details see the documentation. Scientific users of this 
library should cite U. Ekstrom, L. Visscher, R. Bast, A. J. Thorvald-
sen and K. Ruud; J.Chem.Theor.Comp. 2010, DOI: 10.1021/ct100117s
XCFun Version 0.99 
----- Orbital basis set information -----
Your calculation utilizes the basis: def2-TZVPPD
   F. Weigend and R. Ahlrichs, Phys. Chem. Chem. Phys. 7, 3297 (2005).
   D. Rappoport and F. Furche, J. Chem. Phys. 133 134105 (2010).

----- AuxJK basis set information -----
Your calculation utilizes the auxiliary basis: def2/JK
   H-Ba, Hf-Rn: F. Weigend, J. Comput. Chem. 29, 167 (2008).

================================================================================
                                        WARNINGS
                       Please study these warnings very carefully!
================================================================================


WARNING: your system is open-shell and RHF/RKS was chosen
  ===> : WILL SWITCH to UHF/UKS


WARNING: Minnesota functionals are quite sensitive to the integration grid.
         see SE Wheeler, KN Houk, JCTC 2010, 6, 395,
             N Mardirossian, M Head-Gordon, JCTC 2016, 12, 4303.
         Grid6 seems to be a minimum grid for reliable results with these functionals!
  ===> : Please increase the integration grid!


INFO   : the flag for use of LIBINT has been found!

================================================================================
                                       INPUT FILE
================================================================================
NAME = 104.in
|  1> #
|  2> # 104 M06-D3/Def2-TZVPPD
|  3> #
|  4> ! m06 d3zero def2-tzvppd def2/jk grid4 nofinalgrid
|  5> 
|  6> *xyz 0 2
|  7> C          0.18239        0.81792       -0.17289
|  8> H         -2.32613        0.04031        1.01174
|  9> H          2.24798        0.73105       -0.01871
| 10> C          1.34005        0.10819       -0.12066
| 11> H          0.11379        1.91914       -0.21133
| 12> Si        -1.43329       -0.14152       -0.20061
| 13> H         -1.02937       -1.64029       -0.13873
| 14> Li         0.90457       -1.83481       -0.14881
| 15> *
| 16> 
| 17> %maxcore 5000
| 18> 
| 19> %pal
| 20> nprocs = 24
| 21> end
| 22> 
| 23> 
| 24>                          ****END OF INPUT****
================================================================================

                       ****************************
                       * Single Point Calculation *
                       ****************************

---------------------------------
CARTESIAN COORDINATES (ANGSTROEM)
---------------------------------
  C      0.182390    0.817920   -0.172890
  H     -2.326130    0.040310    1.011740
  H      2.247980    0.731050   -0.018710
  C      1.340050    0.108190   -0.120660
  H      0.113790    1.919140   -0.211330
  Si    -1.433290   -0.141520   -0.200610
  H     -1.029370   -1.640290   -0.138730
  Li     0.904570   -1.834810   -0.148810

----------------------------
CARTESIAN COORDINATES (A.U.)
----------------------------
  NO LB      ZA    FRAG     MASS         X           Y           Z
   0 C     6.0000    0    12.011    0.344667    1.545645   -0.326715
   1 H     1.0000    0     1.008   -4.395749    0.076175    1.911912
   2 H     1.0000    0     1.008    4.248067    1.381484   -0.035357
   3 C     6.0000    0    12.011    2.532328    0.204449   -0.228014
   4 H     1.0000    0     1.008    0.215032    3.626649   -0.399356
   5 Si   14.0000    0    28.086   -2.708526   -0.267434   -0.379098
   6 H     1.0000    0     1.008   -1.945227   -3.099699   -0.262162
   7 Li    3.0000    0     6.941    1.709390   -3.467288   -0.281210

--------------------------------
INTERNAL COORDINATES (ANGSTROEM)
--------------------------------
 C      0   0   0     0.000000000000     0.00000000     0.00000000
 H      1   0   0     2.881093219492     0.00000000     0.00000000
 H      1   2   0     2.073156992946   145.65110357     0.00000000
 C      3   1   2     1.105750996834    36.74033397    60.26063611
 H      1   2   4     1.104024040499   103.26355878   206.01422625
 Si     2   1   3     1.516581002453    36.00953826   245.85043630
 H      6   2   1     1.553477394010   103.70381678   115.06980497
 Li     7   6   2     1.943724147198   110.79629298   235.24261074

---------------------------
INTERNAL COORDINATES (A.U.)
---------------------------
 C      0   0   0     0.000000000000     0.00000000     0.00000000
 H      1   0   0     5.444477151136     0.00000000     0.00000000
 H      1   2   0     3.917698949291   145.65110357     0.00000000
 C      3   1   2     2.089566556327    36.74033397    60.26063611
 H      1   2   4     2.086303081809   103.26355878   206.01422625
 Si     2   1   3     2.865922754543    36.00953826   245.85043630
 H      6   2   1     2.935646829917   103.70381678   115.06980497
 Li     7   6   2     3.673106318094   110.79629298   235.24261074

---------------------
BASIS SET INFORMATION
---------------------
There are 4 groups of distinct atoms

 Group   1 Type C   : 12s6p3d1f contracted to 6s3p3d1f pattern {621111/411/111/1}
 Group   2 Type H   : 5s3p1d contracted to 3s3p1d pattern {311/111/1}
 Group   3 Type Si  : 15s9p4d1f contracted to 6s5p4d1f pattern {732111/51111/1111/1}
 Group   4 Type Li  : 11s4p1d contracted to 5s4p1d pattern {62111/1111/1}

Atom   0C    basis set group =>   1
Atom   1H    basis set group =>   2
Atom   2H    basis set group =>   2
Atom   3C    basis set group =>   1
Atom   4H    basis set group =>   2
Atom   5Si   basis set group =>   3
Atom   6H    basis set group =>   2
Atom   7Li   basis set group =>   4
----------------------------------
AUXILIARY/JK BASIS SET INFORMATION
----------------------------------
There are 4 groups of distinct atoms

 Group   1 Type C   : 14s10p6d2f1g contracted to 10s8p5d1f1g pattern {5111111111/31111111/21111/2/1}
 Group   2 Type H   : 4s2p2d contracted to 2s2p2d pattern {31/11/11}
 Group   3 Type Si  : 16s12p10d4f1g contracted to 13s11p9d4f1g pattern {4111111111111/21111111111/211111111/1111/1}
 Group   4 Type Li  : 10s7p4d2f contracted to 7s5p3d2f pattern {4111111/31111/211/11}

Atom   0C    basis set group =>   1
Atom   1H    basis set group =>   2
Atom   2H    basis set group =>   2
Atom   3C    basis set group =>   1
Atom   4H    basis set group =>   2
Atom   5Si   basis set group =>   3
Atom   6H    basis set group =>   2
Atom   7Li   basis set group =>   4


           ************************************************************
           *        Program running with 24 parallel MPI-processes    *
           *              working on a common directory               *
           ************************************************************
------------------------------------------------------------------------------
                           ORCA GTO INTEGRAL CALCULATION
------------------------------------------------------------------------------

                         BASIS SET STATISTICS AND STARTUP INFO

 # of primitive gaussian shells          ...  125
 # of primitive gaussian functions       ...  277
 # of contracted shells                  ...   80
 # of contracted basis functions         ...  212
 Highest angular momentum                ...    3
 Maximum contraction depth               ...    7
 Integral package used                   ... LIBINT
 Integral threshhold            Thresh   ...  1.000e-10
 Primitive cut-off              TCut     ...  1.000e-11


------------------------------ INTEGRAL EVALUATION ----------------------------


 * One electron integrals 
 Pre-screening matrix                    ... done
 Shell pair data                         ... done (   0.001 sec)



           ************************************************************
           *        Program running with 24 parallel MPI-processes    *
           *              working on a common directory               *
           ************************************************************
-------------------------------------------------------------------------------
                                 ORCA SCF
-------------------------------------------------------------------------------

------------
SCF SETTINGS
------------
Hamiltonian:
 Density Functional     Method          .... DFT(GTOs)
 Exchange Functional    Exchange        .... M06
 Correlation Functional Correlation     .... M06
 Gradients option       PostSCFGGA      .... off
 Hybrid DFT is turned on
   Fraction HF Exchange ScalHFX         ....  0.270000
   Scaling of DF-GGA-X  ScalDFX         ....  0.730000
   Scaling of DF-GGA-C  ScalDFC         ....  1.000000
   Scaling of DF-LDA-C  ScalLDAC        ....  1.000000
   Perturbative correction              ....  0.000000
   Density functional embedding theory  .... OFF


General Settings:
 Integral files         IntName         .... 104
 Hartree-Fock type      HFTyp           .... UHF
 Total Charge           Charge          ....    0
 Multiplicity           Mult            ....    2
 Number of Electrons    NEL             ....   33
 Basis Dimension        Dim             ....  212
 Nuclear Repulsion      ENuc            ....    100.1175538757 Eh

Convergence Acceleration:
 DIIS                   CNVDIIS         .... on
   Start iteration      DIISMaxIt       ....    12
   Startup error        DIISStart       ....  0.200000
   # of expansion vecs  DIISMaxEq       ....     5
   Bias factor          DIISBfac        ....   1.050
   Max. coefficient     DIISMaxC        ....  10.000
 Newton-Raphson         CNVNR           .... off
 SOSCF                  CNVSOSCF        .... off
 Level Shifting         CNVShift        .... on
   Level shift para.    LevelShift      ....    0.2500
   Turn off err/grad.   ShiftErr        ....    0.0010
 Zerner damping         CNVZerner       .... off
 Static damping         CNVDamp         .... on
   Fraction old density DampFac         ....    0.7000
   Max. Damping (<1)    DampMax         ....    0.9800
   Min. Damping (>=0)   DampMin         ....    0.0000
   Turn off err/grad.   DampErr         ....    0.1000
 Fernandez-Rico         CNVRico         .... off

SCF Procedure:
 Maximum # iterations   MaxIter         ....   125
 SCF integral mode      SCFMode         .... Direct
   Integral package                     .... LIBINT
 Reset frequency        DirectResetFreq ....    20
 Integral Threshold     Thresh          ....  1.000e-10 Eh
 Primitive CutOff       TCut            ....  1.000e-11 Eh

Convergence Tolerance:
 Convergence Check Mode ConvCheckMode   .... Total+1el-Energy
 Convergence forced     ConvForced      .... 0
 Energy Change          TolE            ....  1.000e-06 Eh
 1-El. energy change                    ....  1.000e-03 Eh
 DIIS Error             TolErr          ....  1.000e-06


Diagonalization of the overlap matrix:
Smallest eigenvalue                        ... 8.995e-06
Time for diagonalization                   ...    0.010 sec
Threshold for overlap eigenvalues          ... 1.000e-08
Number of eigenvalues below threshold      ... 0
Time for construction of square roots      ...    0.006 sec
Total time needed                          ...    0.016 sec

-------------------
DFT GRID GENERATION
-------------------

General Integration Accuracy     IntAcc      ...  4.670
Radial Grid Type                 RadialGrid  ... Gauss-Chebyshev
Angular Grid (max. acc.)         AngularGrid ... Lebedev-302
Angular grid pruning method      GridPruning ... 3 (G Style)
Weight generation scheme         WeightScheme... Becke
Basis function cutoff            BFCut       ...    1.0000e-10
Integration weight cutoff        WCut        ...    1.0000e-14
Grids for H and He will be reduced by one unit

# of grid points (after initial pruning)     ...  38614 (   0.0 sec)
# of grid points (after weights+screening)   ...  36710 (   0.0 sec)
nearest neighbour list constructed           ...    0.0 sec
Grid point re-assignment to atoms done       ...    0.0 sec
Grid point division into batches done        ...    0.1 sec
Reduced shell lists constructed in    0.1 sec

Total number of grid points                  ...    36710
Total number of batches                      ...      577
Average number of points per batch           ...       63
Average number of grid points per atom       ...     4589
Average number of shells per batch           ...    65.00 (81.25%)
Average number of basis functions per batch  ...   179.77 (84.80%)
Average number of large shells per batch     ...    56.92 (87.57%)
Average number of large basis fcns per batch ...   159.00 (88.45%)
Maximum spatial batch extension              ...   3.68,  3.55, 17.08 au
Average spatial batch extension              ...   0.08,  0.08,  0.11 au

Time for grid setup =    0.194 sec

------------------------------
INITIAL GUESS: MODEL POTENTIAL
------------------------------
Loading Hartree-Fock densities                     ... done
Calculating cut-offs                               ... done
Setting up the integral package                    ... done
Initializing the effective Hamiltonian             ... done
Starting the Coulomb interaction                   ... done (   0.0 sec)
Reading the grid                                   ... done
Mapping shells                                     ... done
Starting the XC term evaluation                    ... done (   0.0 sec)
  promolecular density results
     # of electrons  =     32.998045738
     EX              =    -33.300058507
     EC              =     -1.072305799
     EX+EC           =    -34.372364306
Transforming the Hamiltonian                       ... done (   0.0 sec)
Diagonalizing the Hamiltonian                      ... done (   0.0 sec)
Back transforming the eigenvectors                 ... done (   0.0 sec)
Now organizing SCF variables                       ... done
                      ------------------
                      INITIAL GUESS DONE (   0.3 sec)
                      ------------------
--------------
SCF ITERATIONS
--------------
ITER       Energy         Delta-E        Max-DP      RMS-DP      [F,P]     Damp
               ***  Starting incremental Fock matrix formation  ***
  0   -375.2878973272   0.000000000000 0.09862655  0.00146677  0.2248794 0.7000
  1   -375.3918181549  -0.103920827781 0.06212220  0.00124355  0.0999850 0.7000
                               ***Turning on DIIS***
  2   -375.4270526143  -0.035234459370 0.21964020  0.00258503  0.0244736 0.0000
  3   -375.4695579781  -0.042505363811 0.04263628  0.00078412  0.0879725 0.0000
  4   -375.4929253686  -0.023367390485 0.01783161  0.00043462  0.0275180 0.0000
  5   -375.4961174629  -0.003192094315 0.00793392  0.00019885  0.0093967 0.0000
  6   -375.4966376253  -0.000520162332 0.01277632  0.00011914  0.0030128 0.0000
  7   -375.4967734592  -0.000135833913 0.01243880  0.00009592  0.0016393 0.0000
  8   -375.4968313459  -0.000057886736 0.01173458  0.00008204  0.0010462 0.0000
  9   -375.4968606196  -0.000029273727 0.01249629  0.00008313  0.0006947 0.0000
 10   -375.4968867222  -0.000026102598 0.00337302  0.00002380  0.0002126 0.0000
 11   -375.4968886278  -0.000001905571 0.00258178  0.00001688  0.0001697 0.0000
 12   -375.4968893735  -0.000000745652 0.00105728  0.00000825  0.0001071 0.0000
                 **** Energy Check signals convergence ****

               *****************************************************
               *                     SUCCESS                       *
               *           SCF CONVERGED AFTER  13 CYCLES          *
               *****************************************************


----------------
TOTAL SCF ENERGY
----------------

Total Energy       :         -375.49688963 Eh          -10217.78983 eV

Components:
Nuclear Repulsion  :          100.11755388 Eh            2724.33714 eV
Electronic Energy  :         -475.61444351 Eh          -12942.12697 eV
One Electron Energy:         -715.57745470 Eh          -19471.85247 eV
Two Electron Energy:          239.96301119 Eh            6529.72550 eV

Virial components:
Potential Energy   :         -749.75581341 Eh          -20401.89290 eV
Kinetic Energy     :          374.25892378 Eh           10184.10307 eV
Virial Ratio       :            2.00330778


DFT components:
N(Alpha)           :       17.000002835101 electrons
N(Beta)            :       16.000011385627 electrons
N(Total)           :       33.000014220728 electrons
E(XC)              :      -25.875111140292 Eh       
DFET-embed. en.    :        0.000000000000 Eh       

---------------
SCF CONVERGENCE
---------------

  Last Energy change         ...   -2.6097e-07  Tolerance :   1.0000e-06
  Last MAX-Density change    ...    4.0337e-04  Tolerance :   1.0000e-05
  Last RMS-Density change    ...    3.7593e-06  Tolerance :   1.0000e-06
  Last DIIS Error            ...    3.7876e-05  Tolerance :   1.0000e-06

             **** THE GBW FILE WAS UPDATED (104.gbw) ****
             **** DENSITY FILE WAS UPDATED (104.scfp) ****
             **** ENERGY FILE WAS UPDATED (104.en.tmp) ****
----------------------
UHF SPIN CONTAMINATION
----------------------

Warning: in a DFT calculation there is little theoretical justification to 
         calculate <S**2> as in Hartree-Fock theory. We will do it anyways
         but you should keep in mind that the values have only limited relevance

Expectation value of <S**2>     :     0.755862
Ideal value S*(S+1) for S=0.5   :     0.750000
Deviation                       :     0.005862

             **** THE GBW FILE WAS UPDATED (104.gbw) ****
             **** DENSITY FILE WAS UPDATED (104.scfp) ****
----------------
ORBITAL ENERGIES
----------------
                 SPIN UP ORBITALS
  NO   OCC          E(Eh)            E(eV) 
   0   1.0000     -66.252328     -1802.8175 
   1   1.0000     -10.205435      -277.7040 
   2   1.0000     -10.184275      -277.1282 
   3   1.0000      -5.354923      -145.7149 
   4   1.0000      -3.678637      -100.1008 
   5   1.0000      -3.676481      -100.0421 
   6   1.0000      -3.674084       -99.9769 
   7   1.0000      -2.019925       -54.9650 
   8   1.0000      -0.720815       -19.6144 
   9   1.0000      -0.545940       -14.8558 
  10   1.0000      -0.485482       -13.2106 
  11   1.0000      -0.416084       -11.3222 
  12   1.0000      -0.352902        -9.6029 
  13   1.0000      -0.321218        -8.7408 
  14   1.0000      -0.269162        -7.3243 
  15   1.0000      -0.219814        -5.9814 
  16   1.0000      -0.183157        -4.9840 
  17   0.0000      -0.066229        -1.8022 
  18   0.0000      -0.028933        -0.7873 
  19   0.0000      -0.023176        -0.6306 
  20   0.0000      -0.004910        -0.1336 
  21   0.0000       0.008607         0.2342 
  22   0.0000       0.014644         0.3985 
  23   0.0000       0.018704         0.5090 
  24   0.0000       0.028945         0.7876 
  25   0.0000       0.035020         0.9530 
  26   0.0000       0.043102         1.1729 
  27   0.0000       0.046136         1.2554 
  28   0.0000       0.068741         1.8705 
  29   0.0000       0.074090         2.0161 
  30   0.0000       0.082200         2.2368 
  31   0.0000       0.087601         2.3837 
  32   0.0000       0.090779         2.4702 
  33   0.0000       0.110073         2.9952 
  34   0.0000       0.115372         3.1394 
  35   0.0000       0.126133         3.4322 
  36   0.0000       0.141069         3.8387 
  37   0.0000       0.141924         3.8619 
  38   0.0000       0.162384         4.4187 
  39   0.0000       0.164608         4.4792 
  40   0.0000       0.174252         4.7416 
  41   0.0000       0.182538         4.9671 
  42   0.0000       0.200786         5.4637 
  43   0.0000       0.206528         5.6199 
  44   0.0000       0.207574         5.6484 
  45   0.0000       0.225679         6.1410 
  46   0.0000       0.233187         6.3453 
  47   0.0000       0.243309         6.6208 
  48   0.0000       0.249778         6.7968 
  49   0.0000       0.257526         7.0076 
  50   0.0000       0.269587         7.3358 
  51   0.0000       0.275698         7.5021 
  52   0.0000       0.285195         7.7605 
  53   0.0000       0.289242         7.8707 
  54   0.0000       0.299561         8.1515 
  55   0.0000       0.303950         8.2709 
  56   0.0000       0.314094         8.5469 
  57   0.0000       0.320119         8.7109 
  58   0.0000       0.336709         9.1623 
  59   0.0000       0.343751         9.3539 
  60   0.0000       0.369234        10.0474 
  61   0.0000       0.371493        10.1088 
  62   0.0000       0.378475        10.2988 
  63   0.0000       0.396308        10.7841 
  64   0.0000       0.404335        11.0025 
  65   0.0000       0.417797        11.3688 
  66   0.0000       0.431025        11.7288 
  67   0.0000       0.435148        11.8410 
  68   0.0000       0.447943        12.1891 
  69   0.0000       0.469410        12.7733 
  70   0.0000       0.474598        12.9145 
  71   0.0000       0.482265        13.1231 
  72   0.0000       0.492213        13.3938 
  73   0.0000       0.509708        13.8699 
  74   0.0000       0.513026        13.9601 
  75   0.0000       0.537866        14.6361 
  76   0.0000       0.548537        14.9265 
  77   0.0000       0.570088        15.5129 
  78   0.0000       0.587123        15.9764 
  79   0.0000       0.590986        16.0816 
  80   0.0000       0.613372        16.6907 
  81   0.0000       0.626654        17.0521 
  82   0.0000       0.631738        17.1905 
  83   0.0000       0.663046        18.0424 
  84   0.0000       0.679679        18.4950 
  85   0.0000       0.714979        19.4556 
  86   0.0000       0.722310        19.6551 
  87   0.0000       0.735573        20.0160 
  88   0.0000       0.757282        20.6067 
  89   0.0000       0.778429        21.1821 
  90   0.0000       0.796430        21.6720 
  91   0.0000       0.823964        22.4212 
  92   0.0000       0.862768        23.4771 
  93   0.0000       0.885638        24.0994 
  94   0.0000       0.900050        24.4916 
  95   0.0000       0.942893        25.6574 
  96   0.0000       0.968030        26.3414 
  97   0.0000       0.972539        26.4641 
  98   0.0000       0.988362        26.8947 
  99   0.0000       1.011637        27.5280 
 100   0.0000       1.034583        28.1524 
 101   0.0000       1.048592        28.5336 
 102   0.0000       1.073847        29.2209 
 103   0.0000       1.086786        29.5730 
 104   0.0000       1.105633        30.0858 
 105   0.0000       1.126031        30.6409 
 106   0.0000       1.157275        31.4911 
 107   0.0000       1.180530        32.1239 
 108   0.0000       1.222641        33.2697 
 109   0.0000       1.275123        34.6979 
 110   0.0000       1.277717        34.7685 
 111   0.0000       1.300275        35.3823 
 112   0.0000       1.331710        36.2377 
 113   0.0000       1.342813        36.5398 
 114   0.0000       1.369767        37.2733 
 115   0.0000       1.390910        37.8486 
 116   0.0000       1.400603        38.1123 
 117   0.0000       1.432564        38.9820 
 118   0.0000       1.445659        39.3384 
 119   0.0000       1.482638        40.3446 
 120   0.0000       1.492747        40.6197 
 121   0.0000       1.512546        41.1585 
 122   0.0000       1.569609        42.7112 
 123   0.0000       1.625073        44.2205 
 124   0.0000       1.678331        45.6697 
 125   0.0000       1.682625        45.7865 
 126   0.0000       1.720061        46.8052 
 127   0.0000       1.737405        47.2772 
 128   0.0000       1.808741        49.2184 
 129   0.0000       1.821215        49.5578 
 130   0.0000       1.868858        50.8542 
 131   0.0000       1.873992        50.9939 
 132   0.0000       1.990915        54.1756 
 133   0.0000       2.077363        56.5279 
 134   0.0000       2.121727        57.7351 
 135   0.0000       2.246112        61.1198 
 136   0.0000       2.292429        62.3802 
 137   0.0000       2.619233        71.2730 
 138   0.0000       2.638593        71.7998 
 139   0.0000       2.707280        73.6688 
 140   0.0000       2.733585        74.3846 
 141   0.0000       2.784146        75.7605 
 142   0.0000       2.858178        77.7750 
 143   0.0000       2.867751        78.0355 
 144   0.0000       2.922389        79.5223 
 145   0.0000       2.945774        80.1586 
 146   0.0000       2.961618        80.5897 
 147   0.0000       3.009396        81.8898 
 148   0.0000       3.032969        82.5313 
 149   0.0000       3.098019        84.3014 
 150   0.0000       3.128842        85.1401 
 151   0.0000       3.205433        87.2243 
 152   0.0000       3.240732        88.1848 
 153   0.0000       3.255422        88.5845 
 154   0.0000       3.299970        89.7968 
 155   0.0000       3.320424        90.3533 
 156   0.0000       3.336020        90.7777 
 157   0.0000       3.342828        90.9630 
 158   0.0000       3.351736        91.2054 
 159   0.0000       3.394228        92.3616 
 160   0.0000       3.419809        93.0577 
 161   0.0000       3.475682        94.5781 
 162   0.0000       3.486814        94.8810 
 163   0.0000       3.534631        96.1822 
 164   0.0000       3.628621        98.7398 
 165   0.0000       3.647170        99.2445 
 166   0.0000       3.688177       100.3604 
 167   0.0000       3.699841       100.6778 
 168   0.0000       3.728121       101.4473 
 169   0.0000       3.753575       102.1400 
 170   0.0000       3.790569       103.1466 
 171   0.0000       3.821195       103.9800 
 172   0.0000       3.841369       104.5290 
 173   0.0000       3.881383       105.6178 
 174   0.0000       3.912380       106.4613 
 175   0.0000       3.944092       107.3242 
 176   0.0000       4.035407       109.8090 
 177   0.0000       4.064676       110.6055 
 178   0.0000       4.080136       111.0261 
 179   0.0000       4.115828       111.9974 
 180   0.0000       4.137627       112.5906 
 181   0.0000       4.189394       113.9992 
 182   0.0000       4.223176       114.9185 
 183   0.0000       4.283960       116.5725 
 184   0.0000       4.359685       118.6331 
 185   0.0000       4.474017       121.7442 
 186   0.0000       4.512838       122.8006 
 187   0.0000       4.548349       123.7669 
 188   0.0000       4.613902       125.5507 
 189   0.0000       4.637511       126.1931 
 190   0.0000       4.671666       127.1225 
 191   0.0000       4.683425       127.4425 
 192   0.0000       4.805190       130.7559 
 193   0.0000       4.819919       131.1567 
 194   0.0000       4.851111       132.0054 
 195   0.0000       4.889991       133.0634 
 196   0.0000       4.998873       136.0262 
 197   0.0000       5.212922       141.8508 
 198   0.0000       5.251631       142.9042 
 199   0.0000       5.331428       145.0755 
 200   0.0000       5.410732       147.2335 
 201   0.0000       5.627180       153.1234 
 202   0.0000       5.945539       161.7864 
 203   0.0000       6.131255       166.8399 
 204   0.0000       6.188203       168.3896 
 205   0.0000       6.372576       173.4066 
 206   0.0000       6.801687       185.0833 
 207   0.0000       6.885885       187.3745 
 208   0.0000      11.825190       321.7798 
 209   0.0000      14.594414       397.1342 
 210   0.0000      22.577652       614.3692 
 211   0.0000      23.067238       627.6914 

                 SPIN DOWN ORBITALS
  NO   OCC          E(Eh)            E(eV) 
   0   1.0000     -66.249595     -1802.7431 
   1   1.0000     -10.204786      -277.6863 
   2   1.0000     -10.182291      -277.0742 
   3   1.0000      -5.351858      -145.6315 
   4   1.0000      -3.674474       -99.9875 
   5   1.0000      -3.672118       -99.9234 
   6   1.0000      -3.670788       -99.8872 
   7   1.0000      -2.020079       -54.9691 
   8   1.0000      -0.715783       -19.4774 
   9   1.0000      -0.533158       -14.5080 
  10   1.0000      -0.477132       -12.9834 
  11   1.0000      -0.409470       -11.1423 
  12   1.0000      -0.346275        -9.4226 
  13   1.0000      -0.313961        -8.5433 
  14   1.0000      -0.254936        -6.9372 
  15   1.0000      -0.209033        -5.6881 
  16   0.0000      -0.084045        -2.2870 
  17   0.0000      -0.063868        -1.7379 
  18   0.0000      -0.026171        -0.7121 
  19   0.0000      -0.019803        -0.5389 
  20   0.0000      -0.002013        -0.0548 
  21   0.0000       0.016782         0.4567 
  22   0.0000       0.023846         0.6489 
  23   0.0000       0.028896         0.7863 
  24   0.0000       0.031711         0.8629 
  25   0.0000       0.042459         1.1554 
  26   0.0000       0.048890         1.3304 
  27   0.0000       0.052903         1.4396 
  28   0.0000       0.077719         2.1148 
  29   0.0000       0.088929         2.4199 
  30   0.0000       0.094173         2.5626 
  31   0.0000       0.102918         2.8005 
  32   0.0000       0.109447         2.9782 
  33   0.0000       0.116527         3.1708 
  34   0.0000       0.129316         3.5189 
  35   0.0000       0.137810         3.7500 
  36   0.0000       0.149387         4.0650 
  37   0.0000       0.154255         4.1975 
  38   0.0000       0.169555         4.6138 
  39   0.0000       0.174409         4.7459 
  40   0.0000       0.179210         4.8765 
  41   0.0000       0.191145         5.2013 
  42   0.0000       0.207262         5.6399 
  43   0.0000       0.214512         5.8372 
  44   0.0000       0.216737         5.8977 
  45   0.0000       0.237479         6.4621 
  46   0.0000       0.243445         6.6245 
  47   0.0000       0.248252         6.7553 
  48   0.0000       0.257010         6.9936 
  49   0.0000       0.270367         7.3571 
  50   0.0000       0.273812         7.4508 
  51   0.0000       0.279628         7.6091 
  52   0.0000       0.291431         7.9302 
  53   0.0000       0.297646         8.0994 
  54   0.0000       0.303424         8.2566 
  55   0.0000       0.308669         8.3993 
  56   0.0000       0.321385         8.7453 
  57   0.0000       0.325515         8.8577 
  58   0.0000       0.338673         9.2158 
  59   0.0000       0.350172         9.5287 
  60   0.0000       0.373921        10.1749 
  61   0.0000       0.376989        10.2584 
  62   0.0000       0.384772        10.4702 
  63   0.0000       0.404299        11.0015 
  64   0.0000       0.408341        11.1115 
  65   0.0000       0.423910        11.5352 
  66   0.0000       0.437809        11.9134 
  67   0.0000       0.445147        12.1131 
  68   0.0000       0.457480        12.4487 
  69   0.0000       0.473334        12.8801 
  70   0.0000       0.478044        13.0082 
  71   0.0000       0.487195        13.2573 
  72   0.0000       0.497467        13.5368 
  73   0.0000       0.515615        14.0306 
  74   0.0000       0.524262        14.2659 
  75   0.0000       0.538065        14.6415 
  76   0.0000       0.551634        15.0107 
  77   0.0000       0.570743        15.5307 
  78   0.0000       0.591482        16.0951 
  79   0.0000       0.597394        16.2559 
  80   0.0000       0.618336        16.8258 
  81   0.0000       0.631080        17.1726 
  82   0.0000       0.635481        17.2923 
  83   0.0000       0.666232        18.1291 
  84   0.0000       0.682841        18.5811 
  85   0.0000       0.716998        19.5105 
  86   0.0000       0.721924        19.6446 
  87   0.0000       0.736611        20.0442 
  88   0.0000       0.758406        20.6373 
  89   0.0000       0.781925        21.2773 
  90   0.0000       0.796728        21.6801 
  91   0.0000       0.824850        22.4453 
  92   0.0000       0.866302        23.5733 
  93   0.0000       0.886543        24.1241 
  94   0.0000       0.904537        24.6137 
  95   0.0000       0.951969        25.9044 
  96   0.0000       0.973171        26.4813 
  97   0.0000       0.976599        26.5746 
  98   0.0000       0.996828        27.1251 
  99   0.0000       1.009152        27.4604 
 100   0.0000       1.038002        28.2455 
 101   0.0000       1.059565        28.8322 
 102   0.0000       1.073877        29.2217 
 103   0.0000       1.088510        29.6199 
 104   0.0000       1.109312        30.1859 
 105   0.0000       1.125195        30.6181 
 106   0.0000       1.164164        31.6785 
 107   0.0000       1.196769        32.5657 
 108   0.0000       1.230600        33.4863 
 109   0.0000       1.278858        34.7995 
 110   0.0000       1.295461        35.2513 
 111   0.0000       1.308214        35.5983 
 112   0.0000       1.336732        36.3743 
 113   0.0000       1.354532        36.8587 
 114   0.0000       1.375173        37.4204 
 115   0.0000       1.406612        38.2759 
 116   0.0000       1.411777        38.4164 
 117   0.0000       1.445990        39.3474 
 118   0.0000       1.477466        40.2039 
 119   0.0000       1.491919        40.5972 
 120   0.0000       1.501196        40.8496 
 121   0.0000       1.519574        41.3497 
 122   0.0000       1.588734        43.2316 
 123   0.0000       1.636106        44.5207 
 124   0.0000       1.686294        45.8864 
 125   0.0000       1.695244        46.1299 
 126   0.0000       1.727528        47.0084 
 127   0.0000       1.746713        47.5305 
 128   0.0000       1.811471        49.2926 
 129   0.0000       1.833026        49.8792 
 130   0.0000       1.872680        50.9582 
 131   0.0000       1.880146        51.1614 
 132   0.0000       1.993402        54.2432 
 133   0.0000       2.080305        56.6080 
 134   0.0000       2.126292        57.8594 
 135   0.0000       2.249742        61.2186 
 136   0.0000       2.296148        62.4814 
 137   0.0000       2.623865        71.3990 
 138   0.0000       2.643541        71.9344 
 139   0.0000       2.705750        73.6272 
 140   0.0000       2.733245        74.3754 
 141   0.0000       2.783635        75.7465 
 142   0.0000       2.857461        77.7555 
 143   0.0000       2.874579        78.2213 
 144   0.0000       2.924060        79.5677 
 145   0.0000       2.945521        80.1517 
 146   0.0000       2.966141        80.7128 
 147   0.0000       3.016087        82.0719 
 148   0.0000       3.037345        82.6504 
 149   0.0000       3.100645        84.3728 
 150   0.0000       3.133025        85.2539 
 151   0.0000       3.210318        87.3572 
 152   0.0000       3.240694        88.1838 
 153   0.0000       3.256959        88.6264 
 154   0.0000       3.309326        90.0513 
 155   0.0000       3.325159        90.4822 
 156   0.0000       3.341999        90.9404 
 157   0.0000       3.345655        91.0399 
 158   0.0000       3.355440        91.3062 
 159   0.0000       3.397371        92.4472 
 160   0.0000       3.424223        93.1778 
 161   0.0000       3.483362        94.7871 
 162   0.0000       3.491537        95.0096 
 163   0.0000       3.536565        96.2348 
 164   0.0000       3.614481        98.3550 
 165   0.0000       3.629134        98.7537 
 166   0.0000       3.668054        99.8128 
 167   0.0000       3.672221        99.9262 
 168   0.0000       3.730831       101.5211 
 169   0.0000       3.749259       102.0225 
 170   0.0000       3.801861       103.4539 
 171   0.0000       3.832453       104.2863 
 172   0.0000       3.844569       104.6160 
 173   0.0000       3.879510       105.5668 
 174   0.0000       3.914109       106.5083 
 175   0.0000       3.941312       107.2486 
 176   0.0000       4.035708       109.8172 
 177   0.0000       4.065978       110.6409 
 178   0.0000       4.080226       111.0286 
 179   0.0000       4.114968       111.9740 
 180   0.0000       4.141509       112.6962 
 181   0.0000       4.189849       114.0116 
 182   0.0000       4.227744       115.0428 
 183   0.0000       4.287911       116.6800 
 184   0.0000       4.366787       118.8263 
 185   0.0000       4.461195       121.3953 
 186   0.0000       4.515475       122.8723 
 187   0.0000       4.527061       123.1876 
 188   0.0000       4.613302       125.5343 
 189   0.0000       4.643122       126.3458 
 190   0.0000       4.673896       127.1832 
 191   0.0000       4.688367       127.5770 
 192   0.0000       4.806288       130.7857 
 193   0.0000       4.825199       131.3003 
 194   0.0000       4.849007       131.9482 
 195   0.0000       4.884181       132.9053 
 196   0.0000       4.992635       135.8565 
 197   0.0000       5.213119       141.8562 
 198   0.0000       5.255753       143.0163 
 199   0.0000       5.338447       145.2665 
 200   0.0000       5.417133       147.4077 
 201   0.0000       5.626541       153.1060 
 202   0.0000       5.945081       161.7739 
 203   0.0000       6.130291       166.8137 
 204   0.0000       6.187286       168.3646 
 205   0.0000       6.384654       173.7353 
 206   0.0000       6.817111       185.5030 
 207   0.0000       6.895011       187.6228 
 208   0.0000      11.833191       321.9975 
 209   0.0000      14.593580       397.1115 
 210   0.0000      22.577687       614.3701 
 211   0.0000      23.069082       627.7416 

                    ********************************
                    * MULLIKEN POPULATION ANALYSIS *
                    ********************************

--------------------------------------------
MULLIKEN ATOMIC CHARGES AND SPIN POPULATIONS
--------------------------------------------
   0 C :   -0.244701    0.050306
   1 H :   -0.077955    0.034582
   2 H :    0.358189    0.039553
   3 C :   -1.210244    0.104653
   4 H :    0.490402   -0.006694
   5 Si:    0.282611    0.770164
   6 H :   -0.371352    0.005375
   7 Li:    0.773049    0.002061
Sum of atomic charges         :    0.0000000
Sum of atomic spin populations:    1.0000000

-----------------------------------------------------
MULLIKEN REDUCED ORBITAL CHARGES AND SPIN POPULATIONS
-----------------------------------------------------
CHARGE
  0 C s       :     3.329783  s :     3.329783
      pz      :     0.999536  p :     2.876396
      px      :     0.967044
      py      :     0.909817
      dz2     :     0.002421  d :     0.034649
      dxz     :     0.008396
      dyz     :     0.002446
      dx2y2   :     0.008231
      dxy     :     0.013155
      f0      :     0.001177  f :     0.003873
      f+1     :     0.000172
      f-1     :     0.000340
      f+2     :     0.000170
      f-2     :     0.000317
      f+3     :     0.001559
      f-3     :     0.000137
  1 H s       :     1.063212  s :     1.063212
      pz      :    -0.004001  p :     0.014447
      px      :     0.011820
      py      :     0.006627
      dz2     :     0.000056  d :     0.000295
      dxz     :     0.000057
      dyz     :     0.000065
      dx2y2   :     0.000053
      dxy     :     0.000065
  2 H s       :     0.492427  s :     0.492427
      pz      :     0.047248  p :     0.147450
      px      :     0.027817
      py      :     0.072386
      dz2     :    -0.000108  d :     0.001935
      dxz     :     0.000473
      dyz     :     0.000134
      dx2y2   :     0.001286
      dxy     :     0.000148
  3 C s       :     3.631289  s :     3.631289
      pz      :     0.746126  p :     3.484410
      px      :     1.202669
      py      :     1.535614
      dz2     :     0.008676  d :     0.091287
      dxz     :     0.037206
      dyz     :    -0.004334
      dx2y2   :     0.025149
      dxy     :     0.024590
      f0      :     0.000994  f :     0.003258
      f+1     :     0.000100
      f-1     :     0.000093
      f+2     :     0.000149
      f-2     :     0.000514
      f+3     :     0.001219
      f-3     :     0.000191
  4 H s       :     0.476754  s :     0.476754
      pz      :     0.007099  p :     0.031152
      px      :     0.025094
      py      :    -0.001040
      dz2     :    -0.000131  d :     0.001691
      dxz     :     0.000014
      dyz     :     0.000792
      dx2y2   :    -0.000239
      dxy     :     0.001255
  5 Sis       :     5.629806  s :     5.629806
      pz      :     2.758692  p :     7.817823
      px      :     2.625490
      py      :     2.433642
      dz2     :     0.030128  d :     0.244156
      dxz     :     0.100151
      dyz     :     0.008916
      dx2y2   :     0.073988
      dxy     :     0.030974
      f0      :     0.002636  f :     0.025604
      f+1     :     0.004787
      f-1     :     0.002790
      f+2     :     0.002084
      f-2     :     0.002374
      f+3     :     0.006139
      f-3     :     0.004794
  6 H s       :     1.340965  s :     1.340965
      pz      :     0.019655  p :     0.029974
      px      :     0.014214
      py      :    -0.003895
      dz2     :     0.000157  d :     0.000412
      dxz     :     0.000010
      dyz     :     0.000039
      dx2y2   :     0.000079
      dxy     :     0.000126
  7 Lis       :     2.073196  s :     2.073196
      pz      :     0.018599  p :     0.127188
      px      :     0.050931
      py      :     0.057658
      dz2     :     0.004672  d :     0.026566
      dxz     :     0.001783
      dyz     :     0.004106
      dx2y2   :     0.009908
      dxy     :     0.006097

SPIN
  0 C s       :     0.040221  s :     0.040221
      pz      :    -0.020566  p :     0.018267
      px      :     0.017513
      py      :     0.021320
      dz2     :     0.000209  d :    -0.008560
      dxz     :     0.004783
      dyz     :    -0.000609
      dx2y2   :    -0.024672
      dxy     :     0.011729
      f0      :     0.000056  f :     0.000378
      f+1     :     0.000009
      f-1     :     0.000023
      f+2     :     0.000013
      f-2     :     0.000161
      f+3     :     0.000168
      f-3     :    -0.000051
  1 H s       :     0.024011  s :     0.024011
      pz      :     0.005932  p :     0.010446
      px      :     0.004933
      py      :    -0.000419
      dz2     :     0.000042  d :     0.000124
      dxz     :     0.000076
      dyz     :    -0.000006
      dx2y2   :     0.000017
      dxy     :    -0.000004
  2 H s       :     0.031021  s :     0.031021
      pz      :     0.003981  p :     0.008404
      px      :     0.001639
      py      :     0.002785
      dz2     :     0.000025  d :     0.000128
      dxz     :     0.000088
      dyz     :     0.000027
      dx2y2   :    -0.000066
      dxy     :     0.000054
  3 C s       :    -0.031230  s :    -0.031230
      pz      :     0.109869  p :     0.138719
      px      :    -0.008276
      py      :     0.037125
      dz2     :    -0.000032  d :    -0.002759
      dxz     :    -0.002894
      dyz     :    -0.000668
      dx2y2   :    -0.002041
      dxy     :     0.002876
      f0      :    -0.000056  f :    -0.000078
      f+1     :    -0.000048
      f-1     :    -0.000018
      f+2     :    -0.000014
      f-2     :     0.000011
      f+3     :     0.000086
      f-3     :    -0.000037
  4 H s       :    -0.001059  s :    -0.001059
      pz      :    -0.005809  p :    -0.005659
      px      :    -0.001503
      py      :     0.001653
      dz2     :     0.000002  d :     0.000024
      dxz     :     0.000006
      dyz     :    -0.000008
      dx2y2   :     0.000001
      dxy     :     0.000022
  5 Sis       :     0.083467  s :     0.083467
      pz      :     0.407535  p :     0.655827
      px      :     0.194853
      py      :     0.053440
      dz2     :     0.002083  d :     0.031539
      dxz     :     0.023265
      dyz     :     0.000412
      dx2y2   :     0.003140
      dxy     :     0.002640
      f0      :    -0.000095  f :    -0.000670
      f+1     :    -0.000273
      f-1     :    -0.000176
      f+2     :    -0.000162
      f-2     :    -0.000004
      f+3     :    -0.000024
      f-3     :     0.000063
  6 H s       :    -0.003653  s :    -0.003653
      pz      :     0.003914  p :     0.008995
      px      :     0.003005
      py      :     0.002076
      dz2     :     0.000009  d :     0.000034
      dxz     :     0.000004
      dyz     :    -0.000000
      dx2y2   :     0.000042
      dxy     :    -0.000021
  7 Lis       :    -0.003100  s :    -0.003100
      pz      :    -0.000931  p :     0.003295
      px      :     0.003701
      py      :     0.000524
      dz2     :    -0.000018  d :     0.001866
      dxz     :     0.001254
      dyz     :    -0.000167
      dx2y2   :     0.000557
      dxy     :     0.000241


                     *******************************
                     * LOEWDIN POPULATION ANALYSIS *
                     *******************************

-------------------------------------------
LOEWDIN ATOMIC CHARGES AND SPIN POPULATIONS
-------------------------------------------
   0 C :   -0.437488    0.098276
   1 H :   -0.166806    0.070955
   2 H :   -0.119224    0.018708
   3 C :   -0.146417    0.127466
   4 H :   -0.085585    0.000827
   5 Si:    0.704709    0.615758
   6 H :   -0.152049    0.059469
   7 Li:    0.402861    0.008541

----------------------------------------------------
LOEWDIN REDUCED ORBITAL CHARGES AND SPIN POPULATIONS
----------------------------------------------------
CHARGE
  0 C s       :     2.785337  s :     2.785337
      pz      :     0.827022  p :     2.860941
      px      :     1.052411
      py      :     0.981508
      dz2     :     0.065380  d :     0.764467
      dxz     :     0.094646
      dyz     :     0.033836
      dx2y2   :     0.324325
      dxy     :     0.246280
      f0      :     0.001426  f :     0.026743
      f+1     :     0.002536
      f-1     :     0.002770
      f+2     :     0.001211
      f-2     :     0.001989
      f+3     :     0.011028
      f-3     :     0.005783
  1 H s       :     0.937054  s :     0.937054
      pz      :     0.124633  p :     0.224513
      px      :     0.061564
      py      :     0.038316
      dz2     :     0.001883  d :     0.005240
      dxz     :     0.002006
      dyz     :     0.000505
      dx2y2   :     0.000474
      dxy     :     0.000372
  2 H s       :     0.748729  s :     0.748729
      pz      :     0.074165  p :     0.342134
      px      :     0.121284
      py      :     0.146686
      dz2     :     0.002557  d :     0.028362
      dxz     :     0.004230
      dyz     :     0.001703
      dx2y2   :     0.010889
      dxy     :     0.008983
  3 C s       :     2.857736  s :     2.857736
      pz      :     0.630524  p :     2.794004
      px      :     1.000584
      py      :     1.162896
      dz2     :     0.048538  d :     0.466699
      dxz     :     0.065706
      dyz     :     0.009663
      dx2y2   :     0.171240
      dxy     :     0.171552
      f0      :     0.002154  f :     0.027978
      f+1     :     0.003220
      f-1     :     0.001288
      f+2     :     0.000710
      f-2     :     0.003853
      f+3     :     0.009624
      f-3     :     0.007130
  4 H s       :     0.733858  s :     0.733858
      pz      :     0.090225  p :     0.323150
      px      :     0.085385
      py      :     0.147540
      dz2     :     0.002703  d :     0.028576
      dxz     :     0.000057
      dyz     :     0.007978
      dx2y2   :     0.008328
      dxy     :     0.009510
  5 Sis       :     4.699574  s :     4.699574
      pz      :     2.698890  p :     7.941611
      px      :     2.654180
      py      :     2.588540
      dz2     :     0.087542  d :     0.572661
      dxz     :     0.176945
      dyz     :     0.016430
      dx2y2   :     0.178797
      dxy     :     0.112947
      f0      :     0.006815  f :     0.081445
      f+1     :     0.012667
      f-1     :     0.009178
      f+2     :     0.006154
      f-2     :     0.007588
      f+3     :     0.023351
      f-3     :     0.015691
  6 H s       :     0.884169  s :     0.884169
      pz      :     0.065472  p :     0.262871
      px      :     0.076658
      py      :     0.120741
      dz2     :     0.000730  d :     0.005010
      dxz     :     0.000152
      dyz     :     0.001059
      dx2y2   :     0.001617
      dxy     :     0.001452
  7 Lis       :     2.095098  s :     2.095098
      pz      :     0.036265  p :     0.314462
      px      :     0.137941
      py      :     0.140256
      dz2     :     0.028931  d :     0.187580
      dxz     :     0.003153
      dyz     :     0.027740
      dx2y2   :     0.083791
      dxy     :     0.043964

SPIN
  0 C s       :     0.005077  s :     0.005077
      pz      :    -0.006633  p :     0.018942
      px      :     0.019608
      py      :     0.005968
      dz2     :     0.002041  d :     0.071946
      dxz     :     0.057430
      dyz     :     0.004390
      dx2y2   :     0.002568
      dxy     :     0.005516
      f0      :     0.000180  f :     0.002311
      f+1     :     0.000034
      f-1     :     0.000016
      f+2     :     0.000073
      f-2     :     0.001013
      f+3     :     0.000900
      f-3     :     0.000097
  1 H s       :     0.012630  s :     0.012630
      pz      :     0.048251  p :     0.057247
      px      :     0.007805
      py      :     0.001191
      dz2     :     0.000879  d :     0.001078
      dxz     :     0.000065
      dyz     :     0.000012
      dx2y2   :     0.000093
      dxy     :     0.000029
  2 H s       :     0.006647  s :     0.006647
      pz      :     0.007100  p :     0.010805
      px      :     0.002143
      py      :     0.001562
      dz2     :     0.000051  d :     0.001256
      dxz     :     0.000759
      dyz     :     0.000304
      dx2y2   :     0.000022
      dxy     :     0.000121
  3 C s       :     0.006438  s :     0.006438
      pz      :     0.079678  p :     0.108327
      px      :     0.008399
      py      :     0.020250
      dz2     :     0.000713  d :     0.012434
      dxz     :    -0.000688
      dyz     :    -0.000543
      dx2y2   :     0.007672
      dxy     :     0.005280
      f0      :    -0.000157  f :     0.000267
      f+1     :    -0.000052
      f-1     :     0.000010
      f+2     :    -0.000048
      f-2     :     0.000012
      f+3     :     0.000518
      f-3     :    -0.000016
  4 H s       :     0.001000  s :     0.001000
      pz      :    -0.003108  p :    -0.000306
      px      :     0.001483
      py      :     0.001319
      dz2     :     0.000012  d :     0.000133
      dxz     :     0.000008
      dyz     :    -0.000081
      dx2y2   :     0.000035
      dxy     :     0.000158
  5 Sis       :     0.072929  s :     0.072929
      pz      :     0.321708  p :     0.494126
      px      :     0.157438
      py      :     0.014981
      dz2     :     0.000387  d :     0.045361
      dxz     :     0.043738
      dyz     :    -0.000070
      dx2y2   :     0.002572
      dxy     :    -0.001266
      f0      :     0.000222  f :     0.003343
      f+1     :     0.000590
      f-1     :    -0.000294
      f+2     :    -0.000133
      f-2     :     0.000462
      f+3     :     0.000805
      f-3     :     0.001692
  6 H s       :     0.003853  s :     0.003853
      pz      :     0.029469  p :     0.054622
      px      :     0.015195
      py      :     0.009958
      dz2     :     0.000017  d :     0.000995
      dxz     :     0.000107
      dyz     :     0.000550
      dx2y2   :     0.000049
      dxy     :     0.000272
  7 Lis       :    -0.003497  s :    -0.003497
      pz      :     0.000403  p :     0.006883
      px      :     0.003836
      py      :     0.002643
      dz2     :     0.000409  d :     0.005155
      dxz     :     0.002339
      dyz     :     0.001048
      dx2y2   :     0.001028
      dxy     :     0.000331


                      *****************************
                      * MAYER POPULATION ANALYSIS *
                      *****************************

  NA   - Mulliken gross atomic population
  ZA   - Total nuclear charge
  QA   - Mulliken gross atomic charge
  VA   - Mayer's total valence
  BVA  - Mayer's bonded valence
  FA   - Mayer's free valence

  ATOM       NA         ZA         QA         VA         BVA        FA
  0 C      6.2447     6.0000    -0.2447     3.0686     3.0586     0.0100
  1 H      1.0780     1.0000    -0.0780     0.9863     0.9844     0.0018
  2 H      0.6418     1.0000     0.3582     1.0425     1.0414     0.0011
  3 C      7.2102     6.0000    -1.2102     3.0237     2.9970     0.0267
  4 H      0.5096     1.0000     0.4904     0.7496     0.7495     0.0001
  5 Si    13.7174    14.0000     0.2826     3.2887     2.6794     0.6093
  6 H      1.3714     1.0000    -0.3714     0.8723     0.8712     0.0011
  7 Li     2.2270     3.0000     0.7730     0.4458     0.4457     0.0001

  Mayer bond orders larger than 0.100000
B(  0-C ,  3-C ) :   1.4099 B(  0-C ,  4-H ) :   0.8218 B(  0-C ,  5-Si) :   0.7473 
B(  1-H ,  5-Si) :   0.9088 B(  2-H ,  3-C ) :   0.9577 B(  3-C ,  5-Si) :   0.3636 
B(  3-C ,  7-Li) :   0.1964 B(  5-Si,  6-H ) :   0.6397 B(  6-H ,  7-Li) :   0.1260 


-------
TIMINGS
-------

Total SCF time: 0 days 0 hours 0 min 7 sec 

Total time                  ....       7.855 sec
Sum of individual times     ....       7.593 sec  ( 96.7%)

Fock matrix formation       ....       7.022 sec  ( 89.4%)
  XC integration            ....       1.528 sec  ( 21.8% of F)
    Basis function eval.    ....       0.079 sec  (  5.2% of XC)
    Density eval.           ....       0.256 sec  ( 16.7% of XC)
    XC-Functional eval.     ....       0.145 sec  (  9.5% of XC)
    XC-Potential eval.      ....       0.582 sec  ( 38.1% of XC)
Diagonalization             ....       0.174 sec  (  2.2%)
Density matrix formation    ....       0.019 sec  (  0.2%)
Population analysis         ....       0.014 sec  (  0.2%)
Initial guess               ....       0.110 sec  (  1.4%)
Orbital Transformation      ....       0.000 sec  (  0.0%)
Orbital Orthonormalization  ....       0.000 sec  (  0.0%)
DIIS solution               ....       0.060 sec  (  0.8%)
Grid generation             ....       0.194 sec  (  2.5%)


-------------------------------------------------------------------------------
                          DFT DISPERSION CORRECTION                            
                                                                               
                              DFTD3 V3.1  Rev 1                                
                              USING zero damping                               
-------------------------------------------------------------------------------
The M06 functional is recognized
Active option DFTDOPT                   ...         3   

molecular C6(AA) [au] = 1463.301972 


            DFT-D V3
 parameters
 s6 scaling factor         :     1.0000 
 rs6 scaling factor        :     1.3250 
 s8 scaling factor         :     0.0000 
 rs8 scaling factor        :     1.0000 
 Damping factor alpha6     :    14.0000 
 Damping factor alpha8     :    16.0000 
 ad hoc parameters k1-k3   :    16.0000     1.3333    -4.0000 

 Edisp/kcal,au: -0.127048607115  -0.000202464821 
 E6   /kcal   :  -0.127048607 
 E8   /kcal   :  -0.000000000 
 % E8         :   0.000000000 

-------------------------   ----------------
Dispersion correction           -0.000202465
-------------------------   ----------------


-------------------------   --------------------
FINAL SINGLE POINT ENERGY      -375.497092099248
-------------------------   --------------------


                            ***************************************
                            *     ORCA property calculations      *
                            ***************************************

                                    ---------------------
                                    Active property flags
                                    ---------------------
   (+) Dipole Moment


------------------------------------------------------------------------------
                       ORCA ELECTRIC PROPERTIES CALCULATION
------------------------------------------------------------------------------

Dipole Moment Calculation                       ... on
Quadrupole Moment Calculation                   ... off
Polarizability Calculation                      ... off
GBWName                                         ... 104.gbw
Electron density file                           ... 104.scfp
The origin for moment calculation is the CENTER OF MASS  = (-0.500057, -0.135647 -0.285939)

-------------
DIPOLE MOMENT
-------------
                                X             Y             Z
Electronic contribution:      1.20928      -4.43718      -1.20102
Nuclear contribution   :     -0.90522       2.81558       1.17165
                        -----------------------------------------
Total Dipole Moment    :      0.30406      -1.62161      -0.02938
                        -----------------------------------------
Magnitude (a.u.)       :      1.65013
Magnitude (Debye)      :      4.19430



--------------------
Rotational spectrum 
--------------------
 
Rotational constants in cm-1:     0.419182     0.179284     0.128388 
Rotational constants in MHz : 12566.751634  5374.809128  3848.967152 

 Dipole components along the rotational axes: 
x,y,z [a.u.] :     0.304182     1.621585    -0.029376 
x,y,z [Debye]:     0.773168     4.121741    -0.074669 

 

Timings for individual modules:

Sum of individual times         ...        8.916 sec (=   0.149 min)
GTO integral calculation        ...        0.681 sec (=   0.011 min)   7.6 %
SCF iterations                  ...        8.235 sec (=   0.137 min)  92.4 %
                             ****ORCA TERMINATED NORMALLY****
TOTAL RUN TIME: 0 days 0 hours 0 minutes 9 seconds 405 msec
