
                                 *****************
                                 * O   R   C   A *
                                 *****************

           --- An Ab Initio, DFT and Semiempirical electronic structure package ---

                  #######################################################
                  #                        -***-                        #
                  #          Department of theory and spectroscopy      #
                  #               Directorship: Frank Neese             #
                  #        Max Planck Institute fuer Kohlenforschung    #
                  #                Kaiser Wilhelm Platz 1               #
                  #                 D-45470 Muelheim/Ruhr               #
                  #                      Germany                        #
                  #                                                     #
                  #                  All rights reserved                #
                  #                        -***-                        #
                  #######################################################


                         Program Version 4.2.0 -  RELEASE  -


 With contributions from (in alphabetic order):
   Daniel Aravena         : Magnetic Suceptibility
   Michael Atanasov       : Ab Initio Ligand Field Theory (pilot matlab implementation)
   Alexander A. Auer      : GIAO ZORA, VPT2
   Ute Becker             : Parallelization
   Giovanni Bistoni       : ED, misc. LED, open-shell LED, HFLED
   Martin Brehm           : Molecular dynamics
   Dmytro Bykov           : SCF Hessian
   Vijay G. Chilkuri      : MRCI spin determinant printing, contributions to CSF-ICE
   Dipayan Datta          : RHF DLPNO-CCSD density
   Achintya Kumar Dutta   : EOM-CC, STEOM-CC
   Dmitry Ganyushin       : Spin-Orbit,Spin-Spin,Magnetic field MRCI
   Miquel Garcia          : C-PCM Hessian, Gaussian charge scheme
   Yang Guo               : DLPNO-NEVPT2, CIM, IAO-localization
   Andreas Hansen         : Spin unrestricted coupled pair/coupled cluster methods
   Benjamin Helmich-Paris : CASSCF linear response (MC-RPA)
   Lee Huntington         : MR-EOM, pCC
   Robert Izsak           : Overlap fitted RIJCOSX, COSX-SCS-MP3, EOM
   Christian Kollmar      : KDIIS, OOCD, Brueckner-CCSD(T), CCSD density
   Simone Kossmann        : Meta GGA functionals, TD-DFT gradient, OOMP2, MP2 Hessian
   Martin Krupicka        : AUTO-CI
   Lucas Lang             : DCDCAS
   Dagmar Lenk            : GEPOL surface, SMD
   Dimitrios Liakos       : Extrapolation schemes; Compound Job, initial MDCI parallelization
   Dimitrios Manganas     : Further ROCIS development; embedding schemes
   Dimitrios Pantazis     : SARC Basis sets
   Taras Petrenko         : DFT Hessian,TD-DFT gradient, ASA, ECA, R-Raman, ABS, FL, XAS/XES, NRVS
   Peter Pinski           : DLPNO-MP2, DLPNO-MP2 Gradient
   Christoph Reimann      : Effective Core Potentials
   Marius Retegan         : Local ZFS, SOC
   Christoph Riplinger    : Optimizer, TS searches, QM/MM, DLPNO-CCSD(T), (RO)-DLPNO pert. Triples
   Tobias Risthaus        : Range-separated hybrids, TD-DFT gradient, RPA, STAB
   Michael Roemelt        : Original ROCIS implementation
   Masaaki Saitow         : Open-shell DLPNO-CCSD energy and density
   Barbara Sandhoefer     : DKH picture change effects
   Avijit Sen             : IP-ROCIS
   Kantharuban Sivalingam : CASSCF convergence, NEVPT2, FIC-MRCI
   Bernardo de Souza      : ESD, SOC TD-DFT
   Georgi Stoychev        : AutoAux, RI-MP2 NMR
   Willem Van den Heuvel  : Paramagnetic NMR
   Boris Wezisla          : Elementary symmetry handling
   Frank Wennmohs         : Technical directorship


 We gratefully acknowledge several colleagues who have allowed us to
 interface, adapt or use parts of their codes:
   Stefan Grimme, W. Hujo, H. Kruse,             : VdW corrections, initial TS optimization,
                  C. Bannwarth                     DFT functionals, gCP, sTDA/sTD-DF
   Ed Valeev, F. Pavosevic, A. Kumar             : LibInt (2-el integral package), F12 methods
   Garnet Chan, S. Sharma, J. Yang, R. Olivares  : DMRG
   Ulf Ekstrom                                   : XCFun DFT Library
   Mihaly Kallay                                 : mrcc  (arbitrary order and MRCC methods)
   Andreas Klamt, Michael Diedenhofen            : otool_cosmo (COSMO solvation model)
   Jiri Pittner, Ondrej Demel                    : Mk-CCSD
   Frank Weinhold                                : gennbo (NPA and NBO analysis)
   Christopher J. Cramer and Donald G. Truhlar   : smd solvation model
   Lars Goerigk                                  : TD-DFT with DH, B97 family of functionals
   V. Asgeirsson, H. Jonsson                     : NEB implementation
   FAccTs GmbH                                   : IRC, NEB, NEB-TS, Multilevel, MM, QM/MM, CI optimization
   S Lehtola, MJT Oliveira, MAL Marques          : LibXC Library


 Your calculation uses the libint2 library for the computation of 2-el integrals
 For citations please refer to: http://libint.valeyev.net

 Your ORCA version has been built with support for libXC version: 4.2.3
 For citations please refer to: https://tddft.org/programs/libxc/

 This ORCA versions uses:
   CBLAS   interface :  Fast vector & matrix operations
   LAPACKE interface :  Fast linear algebra routines
   SCALAPACK package :  Parallel linear algebra routines


Your calculation utilizes the atom-pairwise dispersion correction
with the zero-damping scheme (D30)
Cite in your paper:
S.Grimme, J.Antony, S.Ehrlich and H.Krieg, J.Chem.Phys., 132, (2010), 154104 
   

XCFun DFT library Copyright 2009-2010 Ulf Ekstrom and contributors.
See http://admol.org/xcfun for more information. This is free soft-
ware; see the source code for copying conditions. There is ABSOLUTELY
NO WARRANTY; not even for MERCHANTABILITY or FITNESS FOR A PARTICULAR
PURPOSE. For details see the documentation. Scientific users of this 
library should cite U. Ekstrom, L. Visscher, R. Bast, A. J. Thorvald-
sen and K. Ruud; J.Chem.Theor.Comp. 2010, DOI: 10.1021/ct100117s
XCFun Version 0.99 
----- Orbital basis set information -----
Your calculation utilizes the basis: def2-TZVPPD
   F. Weigend and R. Ahlrichs, Phys. Chem. Chem. Phys. 7, 3297 (2005).
   D. Rappoport and F. Furche, J. Chem. Phys. 133 134105 (2010).

----- AuxJK basis set information -----
Your calculation utilizes the auxiliary basis: def2/JK
   H-Ba, Hf-Rn: F. Weigend, J. Comput. Chem. 29, 167 (2008).

================================================================================
                                        WARNINGS
                       Please study these warnings very carefully!
================================================================================


WARNING: Minnesota functionals are quite sensitive to the integration grid.
         see SE Wheeler, KN Houk, JCTC 2010, 6, 395,
             N Mardirossian, M Head-Gordon, JCTC 2016, 12, 4303.
         Grid6 seems to be a minimum grid for reliable results with these functionals!
  ===> : Please increase the integration grid!


INFO   : the flag for use of LIBINT has been found!

================================================================================
                                       INPUT FILE
================================================================================
NAME = 171_n.in
|  1> #
|  2> # 171_n M06-D3/Def2-TZVPPD
|  3> #
|  4> ! m06 d3zero def2-tzvppd def2/jk grid4 nofinalgrid
|  5> 
|  6> *xyz 0 1
|  7> N          0.00000        0.00000        0.55227
|  8> N          0.00000        0.00000       -0.55227
|  9> *
| 10> 
| 11> %maxcore 5000
| 12> 
| 13> %pal
| 14> nprocs = 24
| 15> end
| 16> 
| 17> 
| 18>                          ****END OF INPUT****
================================================================================

                       ****************************
                       * Single Point Calculation *
                       ****************************

---------------------------------
CARTESIAN COORDINATES (ANGSTROEM)
---------------------------------
  N      0.000000    0.000000    0.552270
  N      0.000000    0.000000   -0.552270

----------------------------
CARTESIAN COORDINATES (A.U.)
----------------------------
  NO LB      ZA    FRAG     MASS         X           Y           Z
   0 N     7.0000    0    14.007    0.000000    0.000000    1.043639
   1 N     7.0000    0    14.007    0.000000    0.000000   -1.043639

--------------------------------
INTERNAL COORDINATES (ANGSTROEM)
--------------------------------
 N      0   0   0     0.000000000000     0.00000000     0.00000000
 N      1   0   0     1.104540000000     0.00000000     0.00000000

---------------------------
INTERNAL COORDINATES (A.U.)
---------------------------
 N      0   0   0     0.000000000000     0.00000000     0.00000000
 N      1   0   0     2.087278103961     0.00000000     0.00000000

---------------------
BASIS SET INFORMATION
---------------------
There are 1 groups of distinct atoms

 Group   1 Type N   : 12s6p3d1f contracted to 6s3p3d1f pattern {621111/411/111/1}

Atom   0N    basis set group =>   1
Atom   1N    basis set group =>   1
----------------------------------
AUXILIARY/JK BASIS SET INFORMATION
----------------------------------
There are 1 groups of distinct atoms

 Group   1 Type N   : 14s10p6d2f1g contracted to 10s8p4d2f1g pattern {5111111111/31111111/3111/11/1}

Atom   0N    basis set group =>   1
Atom   1N    basis set group =>   1


           ************************************************************
           *        Program running with 24 parallel MPI-processes    *
           *              working on a common directory               *
           ************************************************************
------------------------------------------------------------------------------
                           ORCA GTO INTEGRAL CALCULATION
------------------------------------------------------------------------------

                         BASIS SET STATISTICS AND STARTUP INFO

 # of primitive gaussian shells          ...   44
 # of primitive gaussian functions       ...  104
 # of contracted shells                  ...   26
 # of contracted basis functions         ...   74
 Highest angular momentum                ...    3
 Maximum contraction depth               ...    6
 Integral package used                   ... LIBINT
 Integral threshhold            Thresh   ...  1.000e-10
 Primitive cut-off              TCut     ...  1.000e-11


------------------------------ INTEGRAL EVALUATION ----------------------------


 * One electron integrals 
 Pre-screening matrix                    ... done
 Shell pair data                         ... done (   0.000 sec)



           ************************************************************
           *        Program running with 24 parallel MPI-processes    *
           *              working on a common directory               *
           ************************************************************
-------------------------------------------------------------------------------
                                 ORCA SCF
-------------------------------------------------------------------------------

------------
SCF SETTINGS
------------
Hamiltonian:
 Density Functional     Method          .... DFT(GTOs)
 Exchange Functional    Exchange        .... M06
 Correlation Functional Correlation     .... M06
 Gradients option       PostSCFGGA      .... off
 Hybrid DFT is turned on
   Fraction HF Exchange ScalHFX         ....  0.270000
   Scaling of DF-GGA-X  ScalDFX         ....  0.730000
   Scaling of DF-GGA-C  ScalDFC         ....  1.000000
   Scaling of DF-LDA-C  ScalLDAC        ....  1.000000
   Perturbative correction              ....  0.000000
   Density functional embedding theory  .... OFF


General Settings:
 Integral files         IntName         .... 171_n
 Hartree-Fock type      HFTyp           .... RHF
 Total Charge           Charge          ....    0
 Multiplicity           Mult            ....    1
 Number of Electrons    NEL             ....   14
 Basis Dimension        Dim             ....   74
 Nuclear Repulsion      ENuc            ....     23.4755492845 Eh

Convergence Acceleration:
 DIIS                   CNVDIIS         .... on
   Start iteration      DIISMaxIt       ....    12
   Startup error        DIISStart       ....  0.200000
   # of expansion vecs  DIISMaxEq       ....     5
   Bias factor          DIISBfac        ....   1.050
   Max. coefficient     DIISMaxC        ....  10.000
 Newton-Raphson         CNVNR           .... off
 SOSCF                  CNVSOSCF        .... on
   Start iteration      SOSCFMaxIt      ....   150
   Startup grad/error   SOSCFStart      ....  0.003300
 Level Shifting         CNVShift        .... on
   Level shift para.    LevelShift      ....    0.2500
   Turn off err/grad.   ShiftErr        ....    0.0010
 Zerner damping         CNVZerner       .... off
 Static damping         CNVDamp         .... on
   Fraction old density DampFac         ....    0.7000
   Max. Damping (<1)    DampMax         ....    0.9800
   Min. Damping (>=0)   DampMin         ....    0.0000
   Turn off err/grad.   DampErr         ....    0.1000
 Fernandez-Rico         CNVRico         .... off

SCF Procedure:
 Maximum # iterations   MaxIter         ....   125
 SCF integral mode      SCFMode         .... Direct
   Integral package                     .... LIBINT
 Reset frequency        DirectResetFreq ....    20
 Integral Threshold     Thresh          ....  1.000e-10 Eh
 Primitive CutOff       TCut            ....  1.000e-11 Eh

Convergence Tolerance:
 Convergence Check Mode ConvCheckMode   .... Total+1el-Energy
 Convergence forced     ConvForced      .... 0
 Energy Change          TolE            ....  1.000e-06 Eh
 1-El. energy change                    ....  1.000e-03 Eh
 Orbital Gradient       TolG            ....  5.000e-05
 Orbital Rotation angle TolX            ....  5.000e-05
 DIIS Error             TolErr          ....  1.000e-06


Diagonalization of the overlap matrix:
Smallest eigenvalue                        ... 3.055e-05
Time for diagonalization                   ...    0.002 sec
Threshold for overlap eigenvalues          ... 1.000e-08
Number of eigenvalues below threshold      ... 0
Time for construction of square roots      ...    0.001 sec
Total time needed                          ...    0.003 sec

-------------------
DFT GRID GENERATION
-------------------

General Integration Accuracy     IntAcc      ...  4.670
Radial Grid Type                 RadialGrid  ... Gauss-Chebyshev
Angular Grid (max. acc.)         AngularGrid ... Lebedev-302
Angular grid pruning method      GridPruning ... 3 (G Style)
Weight generation scheme         WeightScheme... Becke
Basis function cutoff            BFCut       ...    1.0000e-10
Integration weight cutoff        WCut        ...    1.0000e-14
Grids for H and He will be reduced by one unit

# of grid points (after initial pruning)     ...  12424 (   0.0 sec)
# of grid points (after weights+screening)   ...  12394 (   0.0 sec)
nearest neighbour list constructed           ...    0.0 sec
Grid point re-assignment to atoms done       ...    0.0 sec
Grid point division into batches done        ...    0.1 sec
Reduced shell lists constructed in    0.1 sec

Total number of grid points                  ...    12394
Total number of batches                      ...      194
Average number of points per batch           ...       63
Average number of grid points per atom       ...     6197
Average number of shells per batch           ...     6.80 (26.15%)
Average number of basis functions per batch  ...    17.00 (22.97%)
Average number of large shells per batch     ...     5.40 (79.41%)
Average number of large basis fcns per batch ...    14.60 (85.88%)
Maximum spatial batch extension              ...  19.94, 19.94, 11.34 au
Average spatial batch extension              ...   0.68,  0.68,  0.45 au

Time for grid setup =    0.105 sec

------------------------------
INITIAL GUESS: MODEL POTENTIAL
------------------------------
Loading Hartree-Fock densities                     ... done
Calculating cut-offs                               ... done
Setting up the integral package                    ... done
Initializing the effective Hamiltonian             ... done
Starting the Coulomb interaction                   ... done (   0.0 sec)
Reading the grid                                   ... done
Mapping shells                                     ... done
Starting the XC term evaluation                    ... done (   0.0 sec)
  promolecular density results
     # of electrons  =     13.999994265
     EX              =    -12.969730435
     EC              =     -0.446774343
     EX+EC           =    -13.416504778
Transforming the Hamiltonian                       ... done (   0.0 sec)
Diagonalizing the Hamiltonian                      ... done (   0.0 sec)
Back transforming the eigenvectors                 ... done (   0.0 sec)
Now organizing SCF variables                       ... done
                      ------------------
                      INITIAL GUESS DONE (   0.2 sec)
                      ------------------
--------------
SCF ITERATIONS
--------------
ITER       Energy         Delta-E        Max-DP      RMS-DP      [F,P]     Damp
               ***  Starting incremental Fock matrix formation  ***
  0   -109.4948179185   0.000000000000 0.09377055  0.00334683  0.0825423 0.7000
                      *** Initiating the SOSCF procedure ***
                      *** Re-Reading the Fockian *** 
                      *** Removing any level shift *** 
ITER      Energy       Delta-E        Grad      Rot      Max-DP    RMS-DP
  1   -109.49930617  -0.0044882480  0.002689  0.002689  0.295641  0.010051
               *** Restarting incremental Fock matrix formation ***
  2   -109.50483347  -0.0055273053  0.013592  0.012653  0.040586  0.001417
  3   -109.50554627  -0.0007128004  0.008998  0.005487  0.021631  0.000694
  4   -109.50622626  -0.0006799847  0.000097  0.000122  0.002997  0.000090
                 **** Energy Check signals convergence ****
              ***Rediagonalizing the Fockian in SOSCF/NRSCF***

               *****************************************************
               *                     SUCCESS                       *
               *           SCF CONVERGED AFTER   5 CYCLES          *
               *****************************************************


----------------
TOTAL SCF ENERGY
----------------

Total Energy       :         -109.50622636 Eh           -2979.81591 eV

Components:
Nuclear Repulsion  :           23.47554928 Eh             638.80217 eV
Electronic Energy  :         -132.98177564 Eh           -3618.61808 eV
One Electron Energy:         -194.40104377 Eh           -5289.92134 eV
Two Electron Energy:           61.41926813 Eh            1671.30325 eV

Virial components:
Potential Energy   :         -218.56920056 Eh           -5947.57032 eV
Kinetic Energy     :          109.06297420 Eh            2967.75441 eV
Virial Ratio       :            2.00406419


DFT components:
N(Alpha)           :        6.999998944750 electrons
N(Beta)            :        6.999998944750 electrons
N(Total)           :       13.999997889500 electrons
E(XC)              :      -10.102152126918 Eh       
DFET-embed. en.    :        0.000000000000 Eh       

---------------
SCF CONVERGENCE
---------------

  Last Energy change         ...   -1.0033e-07  Tolerance :   1.0000e-06
  Last MAX-Density change    ...    2.4356e-04  Tolerance :   1.0000e-05
  Last RMS-Density change    ...    7.4860e-06  Tolerance :   1.0000e-06
  Last Orbital Gradient      ...    2.5939e-05  Tolerance :   5.0000e-05
  Last Orbital Rotation      ...    1.4215e-05  Tolerance :   5.0000e-05

             **** THE GBW FILE WAS UPDATED (171_n.gbw) ****
             **** DENSITY FILE WAS UPDATED (171_n.scfp) ****
             **** ENERGY FILE WAS UPDATED (171_n.en.tmp) ****
             **** THE GBW FILE WAS UPDATED (171_n.gbw) ****
             **** DENSITY FILE WAS UPDATED (171_n.scfp) ****
----------------
ORBITAL ENERGIES
----------------

  NO   OCC          E(Eh)            E(eV) 
   0   2.0000     -14.491612      -394.3368 
   1   2.0000     -14.489946      -394.2915 
   2   2.0000      -1.127621       -30.6841 
   3   2.0000      -0.571371       -15.5478 
   4   2.0000      -0.482811       -13.1379 
   5   2.0000      -0.482811       -13.1379 
   6   2.0000      -0.439593       -11.9619 
   7   0.0000      -0.022679        -0.6171 
   8   0.0000      -0.022679        -0.6171 
   9   0.0000       0.026558         0.7227 
  10   0.0000       0.050601         1.3769 
  11   0.0000       0.210557         5.7296 
  12   0.0000       0.258364         7.0304 
  13   0.0000       0.258364         7.0304 
  14   0.0000       0.258429         7.0322 
  15   0.0000       0.258429         7.0322 
  16   0.0000       0.270682         7.3656 
  17   0.0000       0.270682         7.3656 
  18   0.0000       0.288804         7.8587 
  19   0.0000       0.395261        10.7556 
  20   0.0000       0.395263        10.7557 
  21   0.0000       0.427231        11.6255 
  22   0.0000       0.427231        11.6255 
  23   0.0000       0.454596        12.3702 
  24   0.0000       0.481374        13.0989 
  25   0.0000       0.630582        17.1590 
  26   0.0000       0.684407        18.6237 
  27   0.0000       0.707412        19.2497 
  28   0.0000       0.707412        19.2497 
  29   0.0000       0.973279        26.4843 
  30   0.0000       1.079597        29.3773 
  31   0.0000       1.079598        29.3773 
  32   0.0000       1.222332        33.2614 
  33   0.0000       1.222332        33.2614 
  34   0.0000       1.437725        39.1225 
  35   0.0000       1.437727        39.1225 
  36   0.0000       1.506068        40.9822 
  37   0.0000       1.662691        45.2441 
  38   0.0000       1.662691        45.2441 
  39   0.0000       1.876050        51.0499 
  40   0.0000       1.987505        54.0828 
  41   0.0000       1.987505        54.0828 
  42   0.0000       2.164777        58.9066 
  43   0.0000       2.441963        66.4492 
  44   0.0000       2.511810        68.3498 
  45   0.0000       2.511810        68.3498 
  46   0.0000       2.652995        72.1917 
  47   0.0000       2.871105        78.1267 
  48   0.0000       3.480419        94.7070 
  49   0.0000       3.480419        94.7070 
  50   0.0000       3.615886        98.3933 
  51   0.0000       3.615886        98.3933 
  52   0.0000       3.718374       101.1821 
  53   0.0000       3.718374       101.1821 
  54   0.0000       4.083595       111.1203 
  55   0.0000       4.083595       111.1203 
  56   0.0000       4.165677       113.3538 
  57   0.0000       4.514079       122.8343 
  58   0.0000       4.514079       122.8343 
  59   0.0000       4.519664       122.9863 
  60   0.0000       4.519694       122.9871 
  61   0.0000       4.628588       125.9503 
  62   0.0000       4.628612       125.9509 
  63   0.0000       4.894767       133.1934 
  64   0.0000       4.894818       133.1948 
  65   0.0000       5.006644       136.2377 
  66   0.0000       5.040331       137.1544 
  67   0.0000       5.040331       137.1544 
  68   0.0000       6.086229       165.6147 
  69   0.0000       6.239264       169.7790 
  70   0.0000       6.239264       169.7790 
  71   0.0000       6.562557       178.5762 
  72   0.0000      31.617893       860.3666 
  73   0.0000      32.332210       879.8042 

                    ********************************
                    * MULLIKEN POPULATION ANALYSIS *
                    ********************************

-----------------------
MULLIKEN ATOMIC CHARGES
-----------------------
   0 N :    0.000000
   1 N :   -0.000000
Sum of atomic charges:    0.0000000

--------------------------------
MULLIKEN REDUCED ORBITAL CHARGES
--------------------------------
  0 N s       :     4.020042  s :     4.020042
      pz      :     0.988698  p :     2.928765
      px      :     0.970033
      py      :     0.970033
      dz2     :    -0.008551  d :     0.046075
      dxz     :     0.027313
      dyz     :     0.027313
      dx2y2   :    -0.000000
      dxy     :    -0.000000
      f0      :    -0.000190  f :     0.005117
      f+1     :     0.002654
      f-1     :     0.002654
      f+2     :     0.000000
      f-2     :     0.000000
      f+3     :     0.000000
      f-3     :     0.000000
  1 N s       :     4.020043  s :     4.020043
      pz      :     0.988698  p :     2.928765
      px      :     0.970033
      py      :     0.970033
      dz2     :    -0.008551  d :     0.046075
      dxz     :     0.027313
      dyz     :     0.027313
      dx2y2   :     0.000000
      dxy     :     0.000000
      f0      :    -0.000190  f :     0.005117
      f+1     :     0.002654
      f-1     :     0.002654
      f+2     :     0.000000
      f-2     :     0.000000
      f+3     :     0.000000
      f-3     :     0.000000


                     *******************************
                     * LOEWDIN POPULATION ANALYSIS *
                     *******************************

----------------------
LOEWDIN ATOMIC CHARGES
----------------------
   0 N :   -0.000000
   1 N :    0.000000

-------------------------------
LOEWDIN REDUCED ORBITAL CHARGES
-------------------------------
  0 N s       :     3.380339  s :     3.380339
      pz      :     1.448936  p :     3.310860
      px      :     0.930962
      py      :     0.930962
      dz2     :     0.160772  d :     0.281703
      dxz     :     0.060466
      dyz     :     0.060466
      dx2y2   :     0.000000
      dxy     :     0.000000
      f0      :     0.009953  f :     0.027097
      f+1     :     0.008572
      f-1     :     0.008572
      f+2     :     0.000000
      f-2     :     0.000000
      f+3     :     0.000000
      f-3     :     0.000000
  1 N s       :     3.380339  s :     3.380339
      pz      :     1.448936  p :     3.310860
      px      :     0.930962
      py      :     0.930962
      dz2     :     0.160772  d :     0.281703
      dxz     :     0.060466
      dyz     :     0.060466
      dx2y2   :     0.000000
      dxy     :     0.000000
      f0      :     0.009953  f :     0.027097
      f+1     :     0.008572
      f-1     :     0.008572
      f+2     :     0.000000
      f-2     :     0.000000
      f+3     :     0.000000
      f-3     :     0.000000


                      *****************************
                      * MAYER POPULATION ANALYSIS *
                      *****************************

  NA   - Mulliken gross atomic population
  ZA   - Total nuclear charge
  QA   - Mulliken gross atomic charge
  VA   - Mayer's total valence
  BVA  - Mayer's bonded valence
  FA   - Mayer's free valence

  ATOM       NA         ZA         QA         VA         BVA        FA
  0 N      7.0000     7.0000     0.0000     2.0278     2.0278    -0.0000
  1 N      7.0000     7.0000    -0.0000     2.0278     2.0278     0.0000

  Mayer bond orders larger than 0.100000
B(  0-N ,  1-N ) :   2.0278 

-------
TIMINGS
-------

Total SCF time: 0 days 0 hours 0 min 0 sec 

Total time                  ....       0.980 sec
Sum of individual times     ....       0.806 sec  ( 82.2%)

Fock matrix formation       ....       0.601 sec  ( 61.3%)
  XC integration            ....       0.094 sec  ( 15.7% of F)
    Basis function eval.    ....       0.006 sec  (  6.6% of XC)
    Density eval.           ....       0.008 sec  (  8.4% of XC)
    XC-Functional eval.     ....       0.022 sec  ( 23.1% of XC)
    XC-Potential eval.      ....       0.016 sec  ( 16.5% of XC)
Diagonalization             ....       0.001 sec  (  0.2%)
Density matrix formation    ....       0.001 sec  (  0.1%)
Population analysis         ....       0.002 sec  (  0.2%)
Initial guess               ....       0.092 sec  (  9.4%)
Orbital Transformation      ....       0.000 sec  (  0.0%)
Orbital Orthonormalization  ....       0.000 sec  (  0.0%)
DIIS solution               ....       0.000 sec  (  0.0%)
SOSCF solution              ....       0.003 sec  (  0.3%)
Grid generation             ....       0.105 sec  ( 10.8%)


-------------------------------------------------------------------------------
                          DFT DISPERSION CORRECTION                            
                                                                               
                              DFTD3 V3.1  Rev 1                                
                              USING zero damping                               
-------------------------------------------------------------------------------
The M06 functional is recognized
Active option DFTDOPT                   ...         3   

molecular C6(AA) [au] = 88.548939 


            DFT-D V3
 parameters
 s6 scaling factor         :     1.0000 
 rs6 scaling factor        :     1.3250 
 s8 scaling factor         :     0.0000 
 rs8 scaling factor        :     1.0000 
 Damping factor alpha6     :    14.0000 
 Damping factor alpha8     :    16.0000 
 ad hoc parameters k1-k3   :    16.0000     1.3333    -4.0000 

 Edisp/kcal,au: -0.000003010316  -0.000000004797 
 E6   /kcal   :  -0.000003010 
 E8   /kcal   :  -0.000000000 
 % E8         :   0.000000000 

-------------------------   ----------------
Dispersion correction           -0.000000005
-------------------------   ----------------


-------------------------   --------------------
FINAL SINGLE POINT ENERGY      -109.506226362046
-------------------------   --------------------


                            ***************************************
                            *     ORCA property calculations      *
                            ***************************************

                                    ---------------------
                                    Active property flags
                                    ---------------------
   (+) Dipole Moment


------------------------------------------------------------------------------
                       ORCA ELECTRIC PROPERTIES CALCULATION
------------------------------------------------------------------------------

Dipole Moment Calculation                       ... on
Quadrupole Moment Calculation                   ... off
Polarizability Calculation                      ... off
GBWName                                         ... 171_n.gbw
Electron density file                           ... 171_n.scfp
The origin for moment calculation is the CENTER OF MASS  = ( 0.000000,  0.000000  0.000000)

-------------
DIPOLE MOMENT
-------------
                                X             Y             Z
Electronic contribution:      0.00000       0.00000      -0.00000
Nuclear contribution   :      0.00000       0.00000       0.00000
                        -----------------------------------------
Total Dipole Moment    :      0.00000       0.00000      -0.00000
                        -----------------------------------------
Magnitude (a.u.)       :      0.00000
Magnitude (Debye)      :      0.00000



--------------------
Rotational spectrum 
--------------------
 
Rotational constants in cm-1:     0.000000     1.972963     1.972963 
Rotational constants in MHz :     0.000000 59147.933340 59147.933340 

 Dipole components along the rotational axes: 
x,y,z [a.u.] :    -0.000000     0.000000     0.000000 
x,y,z [Debye]:    -0.000000     0.000000     0.000000 

 

Timings for individual modules:

Sum of individual times         ...        1.984 sec (=   0.033 min)
GTO integral calculation        ...        0.645 sec (=   0.011 min)  32.5 %
SCF iterations                  ...        1.339 sec (=   0.022 min)  67.5 %
                             ****ORCA TERMINATED NORMALLY****
TOTAL RUN TIME: 0 days 0 hours 0 minutes 2 seconds 450 msec
