
                                 *****************
                                 * O   R   C   A *
                                 *****************

           --- An Ab Initio, DFT and Semiempirical electronic structure package ---

                  #######################################################
                  #                        -***-                        #
                  #          Department of theory and spectroscopy      #
                  #               Directorship: Frank Neese             #
                  #        Max Planck Institute fuer Kohlenforschung    #
                  #                Kaiser Wilhelm Platz 1               #
                  #                 D-45470 Muelheim/Ruhr               #
                  #                      Germany                        #
                  #                                                     #
                  #                  All rights reserved                #
                  #                        -***-                        #
                  #######################################################


                         Program Version 4.2.0 -  RELEASE  -


 With contributions from (in alphabetic order):
   Daniel Aravena         : Magnetic Suceptibility
   Michael Atanasov       : Ab Initio Ligand Field Theory (pilot matlab implementation)
   Alexander A. Auer      : GIAO ZORA, VPT2
   Ute Becker             : Parallelization
   Giovanni Bistoni       : ED, misc. LED, open-shell LED, HFLED
   Martin Brehm           : Molecular dynamics
   Dmytro Bykov           : SCF Hessian
   Vijay G. Chilkuri      : MRCI spin determinant printing, contributions to CSF-ICE
   Dipayan Datta          : RHF DLPNO-CCSD density
   Achintya Kumar Dutta   : EOM-CC, STEOM-CC
   Dmitry Ganyushin       : Spin-Orbit,Spin-Spin,Magnetic field MRCI
   Miquel Garcia          : C-PCM Hessian, Gaussian charge scheme
   Yang Guo               : DLPNO-NEVPT2, CIM, IAO-localization
   Andreas Hansen         : Spin unrestricted coupled pair/coupled cluster methods
   Benjamin Helmich-Paris : CASSCF linear response (MC-RPA)
   Lee Huntington         : MR-EOM, pCC
   Robert Izsak           : Overlap fitted RIJCOSX, COSX-SCS-MP3, EOM
   Christian Kollmar      : KDIIS, OOCD, Brueckner-CCSD(T), CCSD density
   Simone Kossmann        : Meta GGA functionals, TD-DFT gradient, OOMP2, MP2 Hessian
   Martin Krupicka        : AUTO-CI
   Lucas Lang             : DCDCAS
   Dagmar Lenk            : GEPOL surface, SMD
   Dimitrios Liakos       : Extrapolation schemes; Compound Job, initial MDCI parallelization
   Dimitrios Manganas     : Further ROCIS development; embedding schemes
   Dimitrios Pantazis     : SARC Basis sets
   Taras Petrenko         : DFT Hessian,TD-DFT gradient, ASA, ECA, R-Raman, ABS, FL, XAS/XES, NRVS
   Peter Pinski           : DLPNO-MP2, DLPNO-MP2 Gradient
   Christoph Reimann      : Effective Core Potentials
   Marius Retegan         : Local ZFS, SOC
   Christoph Riplinger    : Optimizer, TS searches, QM/MM, DLPNO-CCSD(T), (RO)-DLPNO pert. Triples
   Tobias Risthaus        : Range-separated hybrids, TD-DFT gradient, RPA, STAB
   Michael Roemelt        : Original ROCIS implementation
   Masaaki Saitow         : Open-shell DLPNO-CCSD energy and density
   Barbara Sandhoefer     : DKH picture change effects
   Avijit Sen             : IP-ROCIS
   Kantharuban Sivalingam : CASSCF convergence, NEVPT2, FIC-MRCI
   Bernardo de Souza      : ESD, SOC TD-DFT
   Georgi Stoychev        : AutoAux, RI-MP2 NMR
   Willem Van den Heuvel  : Paramagnetic NMR
   Boris Wezisla          : Elementary symmetry handling
   Frank Wennmohs         : Technical directorship


 We gratefully acknowledge several colleagues who have allowed us to
 interface, adapt or use parts of their codes:
   Stefan Grimme, W. Hujo, H. Kruse,             : VdW corrections, initial TS optimization,
                  C. Bannwarth                     DFT functionals, gCP, sTDA/sTD-DF
   Ed Valeev, F. Pavosevic, A. Kumar             : LibInt (2-el integral package), F12 methods
   Garnet Chan, S. Sharma, J. Yang, R. Olivares  : DMRG
   Ulf Ekstrom                                   : XCFun DFT Library
   Mihaly Kallay                                 : mrcc  (arbitrary order and MRCC methods)
   Andreas Klamt, Michael Diedenhofen            : otool_cosmo (COSMO solvation model)
   Jiri Pittner, Ondrej Demel                    : Mk-CCSD
   Frank Weinhold                                : gennbo (NPA and NBO analysis)
   Christopher J. Cramer and Donald G. Truhlar   : smd solvation model
   Lars Goerigk                                  : TD-DFT with DH, B97 family of functionals
   V. Asgeirsson, H. Jonsson                     : NEB implementation
   FAccTs GmbH                                   : IRC, NEB, NEB-TS, Multilevel, MM, QM/MM, CI optimization
   S Lehtola, MJT Oliveira, MAL Marques          : LibXC Library


 Your calculation uses the libint2 library for the computation of 2-el integrals
 For citations please refer to: http://libint.valeyev.net

 Your ORCA version has been built with support for libXC version: 4.2.3
 For citations please refer to: https://tddft.org/programs/libxc/

 This ORCA versions uses:
   CBLAS   interface :  Fast vector & matrix operations
   LAPACKE interface :  Fast linear algebra routines
   SCALAPACK package :  Parallel linear algebra routines


Your calculation utilizes the atom-pairwise dispersion correction
with the zero-damping scheme (D30)
Cite in your paper:
S.Grimme, J.Antony, S.Ehrlich and H.Krieg, J.Chem.Phys., 132, (2010), 154104 
   

XCFun DFT library Copyright 2009-2010 Ulf Ekstrom and contributors.
See http://admol.org/xcfun for more information. This is free soft-
ware; see the source code for copying conditions. There is ABSOLUTELY
NO WARRANTY; not even for MERCHANTABILITY or FITNESS FOR A PARTICULAR
PURPOSE. For details see the documentation. Scientific users of this 
library should cite U. Ekstrom, L. Visscher, R. Bast, A. J. Thorvald-
sen and K. Ruud; J.Chem.Theor.Comp. 2010, DOI: 10.1021/ct100117s
XCFun Version 0.99 
----- Orbital basis set information -----
Your calculation utilizes the basis: def2-TZVPPD
   F. Weigend and R. Ahlrichs, Phys. Chem. Chem. Phys. 7, 3297 (2005).
   D. Rappoport and F. Furche, J. Chem. Phys. 133 134105 (2010).

----- AuxJK basis set information -----
Your calculation utilizes the auxiliary basis: def2/JK
   H-Ba, Hf-Rn: F. Weigend, J. Comput. Chem. 29, 167 (2008).

================================================================================
                                        WARNINGS
                       Please study these warnings very carefully!
================================================================================


WARNING: Minnesota functionals are quite sensitive to the integration grid.
         see SE Wheeler, KN Houk, JCTC 2010, 6, 395,
             N Mardirossian, M Head-Gordon, JCTC 2016, 12, 4303.
         Grid6 seems to be a minimum grid for reliable results with these functionals!
  ===> : Please increase the integration grid!


INFO   : the flag for use of LIBINT has been found!

================================================================================
                                       INPUT FILE
================================================================================
NAME = 178_p.in
|  1> #
|  2> # 178_p M06-D3/Def2-TZVPPD
|  3> #
|  4> ! m06 d3zero def2-tzvppd def2/jk grid4 nofinalgrid
|  5> 
|  6> *xyz 0 1
|  7> P          0.00000        0.00000        0.95949
|  8> P          0.00000        0.00000       -0.95949
|  9> *
| 10> 
| 11> %maxcore 5000
| 12> 
| 13> %pal
| 14> nprocs = 24
| 15> end
| 16> 
| 17> 
| 18>                          ****END OF INPUT****
================================================================================

                       ****************************
                       * Single Point Calculation *
                       ****************************

---------------------------------
CARTESIAN COORDINATES (ANGSTROEM)
---------------------------------
  P      0.000000    0.000000    0.959490
  P      0.000000    0.000000   -0.959490

----------------------------
CARTESIAN COORDINATES (A.U.)
----------------------------
  NO LB      ZA    FRAG     MASS         X           Y           Z
   0 P    15.0000    0    30.974    0.000000    0.000000    1.813173
   1 P    15.0000    0    30.974    0.000000    0.000000   -1.813173

--------------------------------
INTERNAL COORDINATES (ANGSTROEM)
--------------------------------
 P      0   0   0     0.000000000000     0.00000000     0.00000000
 P      1   0   0     1.918980000000     0.00000000     0.00000000

---------------------------
INTERNAL COORDINATES (A.U.)
---------------------------
 P      0   0   0     0.000000000000     0.00000000     0.00000000
 P      1   0   0     3.626346656472     0.00000000     0.00000000

---------------------
BASIS SET INFORMATION
---------------------
There are 1 groups of distinct atoms

 Group   1 Type P   : 15s9p4d1f contracted to 6s5p4d1f pattern {732111/51111/1111/1}

Atom   0P    basis set group =>   1
Atom   1P    basis set group =>   1
----------------------------------
AUXILIARY/JK BASIS SET INFORMATION
----------------------------------
There are 1 groups of distinct atoms

 Group   1 Type P   : 16s12p10d4f1g contracted to 13s11p9d4f1g pattern {4111111111111/21111111111/211111111/1111/1}

Atom   0P    basis set group =>   1
Atom   1P    basis set group =>   1


           ************************************************************
           *        Program running with 24 parallel MPI-processes    *
           *              working on a common directory               *
           ************************************************************
------------------------------------------------------------------------------
                           ORCA GTO INTEGRAL CALCULATION
------------------------------------------------------------------------------

                         BASIS SET STATISTICS AND STARTUP INFO

 # of primitive gaussian shells          ...   58
 # of primitive gaussian functions       ...  138
 # of contracted shells                  ...   32
 # of contracted basis functions         ...   96
 Highest angular momentum                ...    3
 Maximum contraction depth               ...    7
 Integral package used                   ... LIBINT
 Integral threshhold            Thresh   ...  1.000e-10
 Primitive cut-off              TCut     ...  1.000e-11


------------------------------ INTEGRAL EVALUATION ----------------------------


 * One electron integrals 
 Pre-screening matrix                    ... done
 Shell pair data                         ... done (   0.000 sec)



           ************************************************************
           *        Program running with 24 parallel MPI-processes    *
           *              working on a common directory               *
           ************************************************************
-------------------------------------------------------------------------------
                                 ORCA SCF
-------------------------------------------------------------------------------

------------
SCF SETTINGS
------------
Hamiltonian:
 Density Functional     Method          .... DFT(GTOs)
 Exchange Functional    Exchange        .... M06
 Correlation Functional Correlation     .... M06
 Gradients option       PostSCFGGA      .... off
 Hybrid DFT is turned on
   Fraction HF Exchange ScalHFX         ....  0.270000
   Scaling of DF-GGA-X  ScalDFX         ....  0.730000
   Scaling of DF-GGA-C  ScalDFC         ....  1.000000
   Scaling of DF-LDA-C  ScalLDAC        ....  1.000000
   Perturbative correction              ....  0.000000
   Density functional embedding theory  .... OFF


General Settings:
 Integral files         IntName         .... 178_p
 Hartree-Fock type      HFTyp           .... RHF
 Total Charge           Charge          ....    0
 Multiplicity           Mult            ....    1
 Number of Electrons    NEL             ....   30
 Basis Dimension        Dim             ....   96
 Nuclear Repulsion      ENuc            ....     62.0459159905 Eh

Convergence Acceleration:
 DIIS                   CNVDIIS         .... on
   Start iteration      DIISMaxIt       ....    12
   Startup error        DIISStart       ....  0.200000
   # of expansion vecs  DIISMaxEq       ....     5
   Bias factor          DIISBfac        ....   1.050
   Max. coefficient     DIISMaxC        ....  10.000
 Newton-Raphson         CNVNR           .... off
 SOSCF                  CNVSOSCF        .... on
   Start iteration      SOSCFMaxIt      ....   150
   Startup grad/error   SOSCFStart      ....  0.003300
 Level Shifting         CNVShift        .... on
   Level shift para.    LevelShift      ....    0.2500
   Turn off err/grad.   ShiftErr        ....    0.0010
 Zerner damping         CNVZerner       .... off
 Static damping         CNVDamp         .... on
   Fraction old density DampFac         ....    0.7000
   Max. Damping (<1)    DampMax         ....    0.9800
   Min. Damping (>=0)   DampMin         ....    0.0000
   Turn off err/grad.   DampErr         ....    0.1000
 Fernandez-Rico         CNVRico         .... off

SCF Procedure:
 Maximum # iterations   MaxIter         ....   125
 SCF integral mode      SCFMode         .... Direct
   Integral package                     .... LIBINT
 Reset frequency        DirectResetFreq ....    20
 Integral Threshold     Thresh          ....  1.000e-10 Eh
 Primitive CutOff       TCut            ....  1.000e-11 Eh

Convergence Tolerance:
 Convergence Check Mode ConvCheckMode   .... Total+1el-Energy
 Convergence forced     ConvForced      .... 0
 Energy Change          TolE            ....  1.000e-06 Eh
 1-El. energy change                    ....  1.000e-03 Eh
 Orbital Gradient       TolG            ....  5.000e-05
 Orbital Rotation angle TolX            ....  5.000e-05
 DIIS Error             TolErr          ....  1.000e-06


Diagonalization of the overlap matrix:
Smallest eigenvalue                        ... 4.968e-04
Time for diagonalization                   ...    0.003 sec
Threshold for overlap eigenvalues          ... 1.000e-08
Number of eigenvalues below threshold      ... 0
Time for construction of square roots      ...    0.002 sec
Total time needed                          ...    0.005 sec

-------------------
DFT GRID GENERATION
-------------------

General Integration Accuracy     IntAcc      ...  4.670
Radial Grid Type                 RadialGrid  ... Gauss-Chebyshev
Angular Grid (max. acc.)         AngularGrid ... Lebedev-302
Angular grid pruning method      GridPruning ... 3 (G Style)
Weight generation scheme         WeightScheme... Becke
Basis function cutoff            BFCut       ...    1.0000e-10
Integration weight cutoff        WCut        ...    1.0000e-14
Grids for H and He will be reduced by one unit

# of grid points (after initial pruning)     ...  13692 (   0.0 sec)
# of grid points (after weights+screening)   ...  13664 (   0.0 sec)
nearest neighbour list constructed           ...    0.0 sec
Grid point re-assignment to atoms done       ...    0.0 sec
Grid point division into batches done        ...    0.1 sec
Reduced shell lists constructed in    0.1 sec

Total number of grid points                  ...    13664
Total number of batches                      ...      214
Average number of points per batch           ...       63
Average number of grid points per atom       ...     6832
Average number of shells per batch           ...     4.80 (15.00%)
Average number of basis functions per batch  ...    14.00 (14.58%)
Average number of large shells per batch     ...     3.70 (77.08%)
Average number of large basis fcns per batch ...    11.10 (79.29%)
Maximum spatial batch extension              ...  21.45, 21.51, 14.48 au
Average spatial batch extension              ...   0.73,  0.73,  0.51 au

Time for grid setup =    0.118 sec

------------------------------
INITIAL GUESS: MODEL POTENTIAL
------------------------------
Loading Hartree-Fock densities                     ... done
Calculating cut-offs                               ... done
Setting up the integral package                    ... done
Initializing the effective Hamiltonian             ... done
Starting the Coulomb interaction                   ... done (   0.0 sec)
Reading the grid                                   ... done
Mapping shells                                     ... done
Starting the XC term evaluation                    ... done (   0.0 sec)
  promolecular density results
     # of electrons  =     30.000013005
     EX              =    -44.964246895
     EC              =     -1.124082877
     EX+EC           =    -46.088329771
Transforming the Hamiltonian                       ... done (   0.0 sec)
Diagonalizing the Hamiltonian                      ... done (   0.0 sec)
Back transforming the eigenvectors                 ... done (   0.0 sec)
Now organizing SCF variables                       ... done
                      ------------------
                      INITIAL GUESS DONE (   0.2 sec)
                      ------------------
--------------
SCF ITERATIONS
--------------
ITER       Energy         Delta-E        Max-DP      RMS-DP      [F,P]     Damp
               ***  Starting incremental Fock matrix formation  ***
  0   -682.6563851235   0.000000000000 0.05535955  0.00135017  0.0913023 0.7000
  1   -682.6654687765  -0.009083652957 0.04365359  0.00105638  0.0545677 0.7000
                               ***Turning on DIIS***
  2   -682.6700411401  -0.004572363633 0.09677850  0.00231247  0.0274160 0.0000
  3   -682.6760559839  -0.006014843774 0.01955997  0.00049624  0.0250799 0.0000
  4   -682.6777704589  -0.001714475080 0.00457600  0.00012398  0.0048531 0.0000
                      *** Initiating the SOSCF procedure ***
                           *** Shutting down DIIS ***
                      *** Re-Reading the Fockian *** 
                      *** Removing any level shift *** 
ITER      Energy       Delta-E        Grad      Rot      Max-DP    RMS-DP
  5   -682.67786863  -0.0000981692  0.000533  0.000533  0.000909  0.000035
               *** Restarting incremental Fock matrix formation ***
  6   -682.67787380  -0.0000051675  0.000241  0.000587  0.001105  0.000029
  7   -682.67787416  -0.0000003623  0.000126  0.000121  0.000357  0.000012
                 **** Energy Check signals convergence ****
              ***Rediagonalizing the Fockian in SOSCF/NRSCF***

               *****************************************************
               *                     SUCCESS                       *
               *           SCF CONVERGED AFTER   8 CYCLES          *
               *****************************************************


----------------
TOTAL SCF ENERGY
----------------

Total Energy       :         -682.67787440 Eh          -18576.60938 eV

Components:
Nuclear Repulsion  :           62.04591599 Eh            1688.35521 eV
Electronic Energy  :         -744.72379039 Eh          -20264.96459 eV
One Electron Energy:        -1067.64869744 Eh          -29052.19804 eV
Two Electron Energy:          322.92490704 Eh            8787.23345 eV

Virial components:
Potential Energy   :        -1363.84425023 Eh          -37112.08879 eV
Kinetic Energy     :          681.16637582 Eh           18535.47941 eV
Virial Ratio       :            2.00221899


DFT components:
N(Alpha)           :       15.000004812669 electrons
N(Beta)            :       15.000004812669 electrons
N(Total)           :       30.000009625338 electrons
E(XC)              :      -34.190889572084 Eh       
DFET-embed. en.    :        0.000000000000 Eh       

---------------
SCF CONVERGENCE
---------------

  Last Energy change         ...   -2.4644e-07  Tolerance :   1.0000e-06
  Last MAX-Density change    ...    1.8589e-04  Tolerance :   1.0000e-05
  Last RMS-Density change    ...    4.4232e-06  Tolerance :   1.0000e-06
  Last Orbital Gradient      ...    2.1372e-05  Tolerance :   5.0000e-05
  Last Orbital Rotation      ...    1.6096e-05  Tolerance :   5.0000e-05

             **** THE GBW FILE WAS UPDATED (178_p.gbw) ****
             **** DENSITY FILE WAS UPDATED (178_p.scfp) ****
             **** ENERGY FILE WAS UPDATED (178_p.en.tmp) ****
             **** THE GBW FILE WAS UPDATED (178_p.gbw) ****
             **** DENSITY FILE WAS UPDATED (178_p.scfp) ****
----------------
ORBITAL ENERGIES
----------------

  NO   OCC          E(Eh)            E(eV) 
   0   2.0000     -77.244734     -2101.9361 
   1   2.0000     -77.244701     -2101.9352 
   2   2.0000      -6.670964      -181.5262 
   3   2.0000      -6.670640      -181.5173 
   4   2.0000      -4.791489      -130.3830 
   5   2.0000      -4.791489      -130.3830 
   6   2.0000      -4.791349      -130.3792 
   7   2.0000      -4.791349      -130.3792 
   8   2.0000      -4.788492      -130.3015 
   9   2.0000      -4.786872      -130.2574 
  10   2.0000      -0.683674       -18.6037 
  11   2.0000      -0.480955       -13.0875 
  12   2.0000      -0.297354        -8.0914 
  13   2.0000      -0.290223        -7.8974 
  14   2.0000      -0.290223        -7.8974 
  15   0.0000      -0.092934        -2.5289 
  16   0.0000      -0.092934        -2.5289 
  17   0.0000       0.003150         0.0857 
  18   0.0000       0.028463         0.7745 
  19   0.0000       0.086206         2.3458 
  20   0.0000       0.086208         2.3459 
  21   0.0000       0.087399         2.3783 
  22   0.0000       0.092029         2.5042 
  23   0.0000       0.120081         3.2676 
  24   0.0000       0.120081         3.2676 
  25   0.0000       0.128536         3.4976 
  26   0.0000       0.128536         3.4976 
  27   0.0000       0.166701         4.5362 
  28   0.0000       0.166703         4.5362 
  29   0.0000       0.190998         5.1973 
  30   0.0000       0.232324         6.3218 
  31   0.0000       0.232324         6.3218 
  32   0.0000       0.302956         8.2438 
  33   0.0000       0.342914         9.3312 
  34   0.0000       0.342914         9.3312 
  35   0.0000       0.363027         9.8785 
  36   0.0000       0.363035         9.8787 
  37   0.0000       0.367953        10.0125 
  38   0.0000       0.423289        11.5183 
  39   0.0000       0.423289        11.5183 
  40   0.0000       0.452375        12.3097 
  41   0.0000       0.455111        12.3842 
  42   0.0000       0.455134        12.3848 
  43   0.0000       0.564365        15.3572 
  44   0.0000       0.564365        15.3572 
  45   0.0000       0.586118        15.9491 
  46   0.0000       0.696865        18.9627 
  47   0.0000       0.844525        22.9807 
  48   0.0000       1.134021        30.8583 
  49   0.0000       1.178210        32.0607 
  50   0.0000       1.178271        32.0624 
  51   0.0000       1.216143        33.0929 
  52   0.0000       1.216143        33.0929 
  53   0.0000       1.277146        34.7529 
  54   0.0000       1.277146        34.7529 
  55   0.0000       1.295586        35.2547 
  56   0.0000       1.295618        35.2556 
  57   0.0000       1.299429        35.3593 
  58   0.0000       1.299429        35.3593 
  59   0.0000       1.327635        36.1268 
  60   0.0000       1.327662        36.1275 
  61   0.0000       1.385456        37.7002 
  62   0.0000       1.398464        38.0541 
  63   0.0000       1.398464        38.0541 
  64   0.0000       1.468223        39.9524 
  65   0.0000       1.468223        39.9524 
  66   0.0000       1.489517        40.5318 
  67   0.0000       1.527689        41.5705 
  68   0.0000       1.527689        41.5705 
  69   0.0000       1.646482        44.8031 
  70   0.0000       1.646482        44.8031 
  71   0.0000       1.653337        44.9896 
  72   0.0000       1.653386        44.9909 
  73   0.0000       1.710898        46.5559 
  74   0.0000       2.143476        58.3269 
  75   0.0000       2.143476        58.3269 
  76   0.0000       2.195858        59.7523 
  77   0.0000       2.296470        62.4901 
  78   0.0000       5.659080       153.9914 
  79   0.0000       5.726010       155.8126 
  80   0.0000       5.726025       155.8131 
  81   0.0000       5.730509       155.9351 
  82   0.0000       5.730509       155.9351 
  83   0.0000       5.755784       156.6229 
  84   0.0000       5.755797       156.6232 
  85   0.0000       5.812191       158.1578 
  86   0.0000       5.812191       158.1578 
  87   0.0000       6.141622       167.1220 
  88   0.0000       7.243917       197.1170 
  89   0.0000       7.243917       197.1170 
  90   0.0000       7.432804       202.2569 
  91   0.0000       7.432804       202.2569 
  92   0.0000       7.516864       204.5443 
  93   0.0000       7.711902       209.8515 
  94   0.0000      13.256963       360.7403 
  95   0.0000      14.682509       399.5314 

                    ********************************
                    * MULLIKEN POPULATION ANALYSIS *
                    ********************************

-----------------------
MULLIKEN ATOMIC CHARGES
-----------------------
   0 P :   -0.000001
   1 P :    0.000001
Sum of atomic charges:   -0.0000000

--------------------------------
MULLIKEN REDUCED ORBITAL CHARGES
--------------------------------
  0 P s       :     6.006337  s :     6.006337
      pz      :     2.991573  p :     8.905412
      px      :     2.956920
      py      :     2.956919
      dz2     :     0.002141  d :     0.081064
      dxz     :     0.039461
      dyz     :     0.039461
      dx2y2   :    -0.000000
      dxy     :     0.000000
      f0      :    -0.000051  f :     0.007188
      f+1     :     0.003619
      f-1     :     0.003619
      f+2     :     0.000000
      f-2     :    -0.000000
      f+3     :     0.000000
      f-3     :     0.000000
  1 P s       :     6.006337  s :     6.006337
      pz      :     2.991572  p :     8.905411
      px      :     2.956919
      py      :     2.956919
      dz2     :     0.002141  d :     0.081064
      dxz     :     0.039461
      dyz     :     0.039461
      dx2y2   :     0.000000
      dxy     :     0.000000
      f0      :    -0.000051  f :     0.007188
      f+1     :     0.003619
      f-1     :     0.003619
      f+2     :     0.000000
      f-2     :    -0.000000
      f+3     :     0.000000
      f-3     :     0.000000


                     *******************************
                     * LOEWDIN POPULATION ANALYSIS *
                     *******************************

----------------------
LOEWDIN ATOMIC CHARGES
----------------------
   0 P :    0.000000
   1 P :   -0.000000

-------------------------------
LOEWDIN REDUCED ORBITAL CHARGES
-------------------------------
  0 P s       :     5.496138  s :     5.496138
      pz      :     3.290871  p :     9.122680
      px      :     2.915904
      py      :     2.915904
      dz2     :     0.200019  d :     0.353213
      dxz     :     0.076597
      dyz     :     0.076597
      dx2y2   :     0.000000
      dxy     :     0.000000
      f0      :     0.012973  f :     0.027970
      f+1     :     0.007498
      f-1     :     0.007498
      f+2     :     0.000000
      f-2     :     0.000000
      f+3     :     0.000000
      f-3     :     0.000000
  1 P s       :     5.496138  s :     5.496138
      pz      :     3.290871  p :     9.122680
      px      :     2.915904
      py      :     2.915904
      dz2     :     0.200019  d :     0.353213
      dxz     :     0.076597
      dyz     :     0.076597
      dx2y2   :     0.000000
      dxy     :     0.000000
      f0      :     0.012973  f :     0.027970
      f+1     :     0.007498
      f-1     :     0.007498
      f+2     :     0.000000
      f-2     :     0.000000
      f+3     :     0.000000
      f-3     :     0.000000


                      *****************************
                      * MAYER POPULATION ANALYSIS *
                      *****************************

  NA   - Mulliken gross atomic population
  ZA   - Total nuclear charge
  QA   - Mulliken gross atomic charge
  VA   - Mayer's total valence
  BVA  - Mayer's bonded valence
  FA   - Mayer's free valence

  ATOM       NA         ZA         QA         VA         BVA        FA
  0 P     15.0000    15.0000    -0.0000     2.5977     2.5977    -0.0000
  1 P     15.0000    15.0000     0.0000     2.5977     2.5977    -0.0000

  Mayer bond orders larger than 0.100000
B(  0-P ,  1-P ) :   2.5977 

-------
TIMINGS
-------

Total SCF time: 0 days 0 hours 0 min 1 sec 

Total time                  ....       1.401 sec
Sum of individual times     ....       1.220 sec  ( 87.1%)

Fock matrix formation       ....       1.005 sec  ( 71.8%)
  XC integration            ....       0.127 sec  ( 12.7% of F)
    Basis function eval.    ....       0.008 sec  (  6.4% of XC)
    Density eval.           ....       0.012 sec  (  9.6% of XC)
    XC-Functional eval.     ....       0.030 sec  ( 23.7% of XC)
    XC-Potential eval.      ....       0.023 sec  ( 18.3% of XC)
Diagonalization             ....       0.007 sec  (  0.5%)
Density matrix formation    ....       0.002 sec  (  0.2%)
Population analysis         ....       0.002 sec  (  0.1%)
Initial guess               ....       0.081 sec  (  5.8%)
Orbital Transformation      ....       0.000 sec  (  0.0%)
Orbital Orthonormalization  ....       0.000 sec  (  0.0%)
DIIS solution               ....       0.003 sec  (  0.2%)
SOSCF solution              ....       0.002 sec  (  0.1%)
Grid generation             ....       0.118 sec  (  8.4%)


-------------------------------------------------------------------------------
                          DFT DISPERSION CORRECTION                            
                                                                               
                              DFTD3 V3.1  Rev 1                                
                              USING zero damping                               
-------------------------------------------------------------------------------
The M06 functional is recognized
Active option DFTDOPT                   ...         3   

molecular C6(AA) [au] = 722.933836 


            DFT-D V3
 parameters
 s6 scaling factor         :     1.0000 
 rs6 scaling factor        :     1.3250 
 s8 scaling factor         :     0.0000 
 rs8 scaling factor        :     1.0000 
 Damping factor alpha6     :    14.0000 
 Damping factor alpha8     :    16.0000 
 ad hoc parameters k1-k3   :    16.0000     1.3333    -4.0000 

 Edisp/kcal,au: -0.000035624674  -0.000000056772 
 E6   /kcal   :  -0.000035625 
 E8   /kcal   :  -0.000000000 
 % E8         :   0.000000000 

-------------------------   ----------------
Dispersion correction           -0.000000057
-------------------------   ----------------


-------------------------   --------------------
FINAL SINGLE POINT ENERGY      -682.677874461126
-------------------------   --------------------


                            ***************************************
                            *     ORCA property calculations      *
                            ***************************************

                                    ---------------------
                                    Active property flags
                                    ---------------------
   (+) Dipole Moment


------------------------------------------------------------------------------
                       ORCA ELECTRIC PROPERTIES CALCULATION
------------------------------------------------------------------------------

Dipole Moment Calculation                       ... on
Quadrupole Moment Calculation                   ... off
Polarizability Calculation                      ... off
GBWName                                         ... 178_p.gbw
Electron density file                           ... 178_p.scfp
The origin for moment calculation is the CENTER OF MASS  = ( 0.000000,  0.000000  0.000000)

-------------
DIPOLE MOMENT
-------------
                                X             Y             Z
Electronic contribution:     -0.00000      -0.00000       0.00000
Nuclear contribution   :      0.00000       0.00000       0.00000
                        -----------------------------------------
Total Dipole Moment    :     -0.00000      -0.00000       0.00000
                        -----------------------------------------
Magnitude (a.u.)       :      0.00000
Magnitude (Debye)      :      0.00000



--------------------
Rotational spectrum 
--------------------
 
Rotational constants in cm-1:     0.000000     0.295589     0.295589 
Rotational constants in MHz :     0.000000  8861.544214  8861.544214 

 Dipole components along the rotational axes: 
x,y,z [a.u.] :     0.000001    -0.000000    -0.000000 
x,y,z [Debye]:     0.000001    -0.000000    -0.000000 

 

Timings for individual modules:

Sum of individual times         ...        2.430 sec (=   0.040 min)
GTO integral calculation        ...        0.666 sec (=   0.011 min)  27.4 %
SCF iterations                  ...        1.764 sec (=   0.029 min)  72.6 %
                             ****ORCA TERMINATED NORMALLY****
TOTAL RUN TIME: 0 days 0 hours 0 minutes 2 seconds 907 msec
