
                                 *****************
                                 * O   R   C   A *
                                 *****************

           --- An Ab Initio, DFT and Semiempirical electronic structure package ---

                  #######################################################
                  #                        -***-                        #
                  #          Department of theory and spectroscopy      #
                  #               Directorship: Frank Neese             #
                  #        Max Planck Institute fuer Kohlenforschung    #
                  #                Kaiser Wilhelm Platz 1               #
                  #                 D-45470 Muelheim/Ruhr               #
                  #                      Germany                        #
                  #                                                     #
                  #                  All rights reserved                #
                  #                        -***-                        #
                  #######################################################


                         Program Version 4.2.0 -  RELEASE  -


 With contributions from (in alphabetic order):
   Daniel Aravena         : Magnetic Suceptibility
   Michael Atanasov       : Ab Initio Ligand Field Theory (pilot matlab implementation)
   Alexander A. Auer      : GIAO ZORA, VPT2
   Ute Becker             : Parallelization
   Giovanni Bistoni       : ED, misc. LED, open-shell LED, HFLED
   Martin Brehm           : Molecular dynamics
   Dmytro Bykov           : SCF Hessian
   Vijay G. Chilkuri      : MRCI spin determinant printing, contributions to CSF-ICE
   Dipayan Datta          : RHF DLPNO-CCSD density
   Achintya Kumar Dutta   : EOM-CC, STEOM-CC
   Dmitry Ganyushin       : Spin-Orbit,Spin-Spin,Magnetic field MRCI
   Miquel Garcia          : C-PCM Hessian, Gaussian charge scheme
   Yang Guo               : DLPNO-NEVPT2, CIM, IAO-localization
   Andreas Hansen         : Spin unrestricted coupled pair/coupled cluster methods
   Benjamin Helmich-Paris : CASSCF linear response (MC-RPA)
   Lee Huntington         : MR-EOM, pCC
   Robert Izsak           : Overlap fitted RIJCOSX, COSX-SCS-MP3, EOM
   Christian Kollmar      : KDIIS, OOCD, Brueckner-CCSD(T), CCSD density
   Simone Kossmann        : Meta GGA functionals, TD-DFT gradient, OOMP2, MP2 Hessian
   Martin Krupicka        : AUTO-CI
   Lucas Lang             : DCDCAS
   Dagmar Lenk            : GEPOL surface, SMD
   Dimitrios Liakos       : Extrapolation schemes; Compound Job, initial MDCI parallelization
   Dimitrios Manganas     : Further ROCIS development; embedding schemes
   Dimitrios Pantazis     : SARC Basis sets
   Taras Petrenko         : DFT Hessian,TD-DFT gradient, ASA, ECA, R-Raman, ABS, FL, XAS/XES, NRVS
   Peter Pinski           : DLPNO-MP2, DLPNO-MP2 Gradient
   Christoph Reimann      : Effective Core Potentials
   Marius Retegan         : Local ZFS, SOC
   Christoph Riplinger    : Optimizer, TS searches, QM/MM, DLPNO-CCSD(T), (RO)-DLPNO pert. Triples
   Tobias Risthaus        : Range-separated hybrids, TD-DFT gradient, RPA, STAB
   Michael Roemelt        : Original ROCIS implementation
   Masaaki Saitow         : Open-shell DLPNO-CCSD energy and density
   Barbara Sandhoefer     : DKH picture change effects
   Avijit Sen             : IP-ROCIS
   Kantharuban Sivalingam : CASSCF convergence, NEVPT2, FIC-MRCI
   Bernardo de Souza      : ESD, SOC TD-DFT
   Georgi Stoychev        : AutoAux, RI-MP2 NMR
   Willem Van den Heuvel  : Paramagnetic NMR
   Boris Wezisla          : Elementary symmetry handling
   Frank Wennmohs         : Technical directorship


 We gratefully acknowledge several colleagues who have allowed us to
 interface, adapt or use parts of their codes:
   Stefan Grimme, W. Hujo, H. Kruse,             : VdW corrections, initial TS optimization,
                  C. Bannwarth                     DFT functionals, gCP, sTDA/sTD-DF
   Ed Valeev, F. Pavosevic, A. Kumar             : LibInt (2-el integral package), F12 methods
   Garnet Chan, S. Sharma, J. Yang, R. Olivares  : DMRG
   Ulf Ekstrom                                   : XCFun DFT Library
   Mihaly Kallay                                 : mrcc  (arbitrary order and MRCC methods)
   Andreas Klamt, Michael Diedenhofen            : otool_cosmo (COSMO solvation model)
   Jiri Pittner, Ondrej Demel                    : Mk-CCSD
   Frank Weinhold                                : gennbo (NPA and NBO analysis)
   Christopher J. Cramer and Donald G. Truhlar   : smd solvation model
   Lars Goerigk                                  : TD-DFT with DH, B97 family of functionals
   V. Asgeirsson, H. Jonsson                     : NEB implementation
   FAccTs GmbH                                   : IRC, NEB, NEB-TS, Multilevel, MM, QM/MM, CI optimization
   S Lehtola, MJT Oliveira, MAL Marques          : LibXC Library


 Your calculation uses the libint2 library for the computation of 2-el integrals
 For citations please refer to: http://libint.valeyev.net

 Your ORCA version has been built with support for libXC version: 4.2.3
 For citations please refer to: https://tddft.org/programs/libxc/

 This ORCA versions uses:
   CBLAS   interface :  Fast vector & matrix operations
   LAPACKE interface :  Fast linear algebra routines
   SCALAPACK package :  Parallel linear algebra routines


Your calculation utilizes the atom-pairwise dispersion correction
with the zero-damping scheme (D30)
Cite in your paper:
S.Grimme, J.Antony, S.Ehrlich and H.Krieg, J.Chem.Phys., 132, (2010), 154104 
   

XCFun DFT library Copyright 2009-2010 Ulf Ekstrom and contributors.
See http://admol.org/xcfun for more information. This is free soft-
ware; see the source code for copying conditions. There is ABSOLUTELY
NO WARRANTY; not even for MERCHANTABILITY or FITNESS FOR A PARTICULAR
PURPOSE. For details see the documentation. Scientific users of this 
library should cite U. Ekstrom, L. Visscher, R. Bast, A. J. Thorvald-
sen and K. Ruud; J.Chem.Theor.Comp. 2010, DOI: 10.1021/ct100117s
XCFun Version 0.99 
----- Orbital basis set information -----
Your calculation utilizes the basis: def2-TZVPPD
   F. Weigend and R. Ahlrichs, Phys. Chem. Chem. Phys. 7, 3297 (2005).
   D. Rappoport and F. Furche, J. Chem. Phys. 133 134105 (2010).

----- AuxJK basis set information -----
Your calculation utilizes the auxiliary basis: def2/JK
   H-Ba, Hf-Rn: F. Weigend, J. Comput. Chem. 29, 167 (2008).

================================================================================
                                        WARNINGS
                       Please study these warnings very carefully!
================================================================================


WARNING: Minnesota functionals are quite sensitive to the integration grid.
         see SE Wheeler, KN Houk, JCTC 2010, 6, 395,
             N Mardirossian, M Head-Gordon, JCTC 2016, 12, 4303.
         Grid6 seems to be a minimum grid for reliable results with these functionals!
  ===> : Please increase the integration grid!


INFO   : the flag for use of LIBINT has been found!

================================================================================
                                       INPUT FILE
================================================================================
NAME = 180_cl.in
|  1> #
|  2> # 180_cl M06-D3/Def2-TZVPPD
|  3> #
|  4> ! m06 d3zero def2-tzvppd def2/jk grid4 nofinalgrid
|  5> 
|  6> *xyz 0 1
|  7> Cl         0.00000        0.00000        1.02399
|  8> Cl         0.00000        0.00000       -1.02399
|  9> *
| 10> 
| 11> %maxcore 5000
| 12> 
| 13> %pal
| 14> nprocs = 24
| 15> end
| 16> 
| 17> 
| 18>                          ****END OF INPUT****
================================================================================

                       ****************************
                       * Single Point Calculation *
                       ****************************

---------------------------------
CARTESIAN COORDINATES (ANGSTROEM)
---------------------------------
  Cl     0.000000    0.000000    1.023990
  Cl     0.000000    0.000000   -1.023990

----------------------------
CARTESIAN COORDINATES (A.U.)
----------------------------
  NO LB      ZA    FRAG     MASS         X           Y           Z
   0 Cl   17.0000    0    35.453    0.000000    0.000000    1.935061
   1 Cl   17.0000    0    35.453    0.000000    0.000000   -1.935061

--------------------------------
INTERNAL COORDINATES (ANGSTROEM)
--------------------------------
 Cl     0   0   0     0.000000000000     0.00000000     0.00000000
 Cl     1   0   0     2.047980000000     0.00000000     0.00000000

---------------------------
INTERNAL COORDINATES (A.U.)
---------------------------
 Cl     0   0   0     0.000000000000     0.00000000     0.00000000
 Cl     1   0   0     3.870121327748     0.00000000     0.00000000

---------------------
BASIS SET INFORMATION
---------------------
There are 1 groups of distinct atoms

 Group   1 Type Cl  : 15s10p4d1f contracted to 6s6p4d1f pattern {732111/511111/1111/1}

Atom   0Cl   basis set group =>   1
Atom   1Cl   basis set group =>   1
----------------------------------
AUXILIARY/JK BASIS SET INFORMATION
----------------------------------
There are 1 groups of distinct atoms

 Group   1 Type Cl  : 16s12p10d4f1g contracted to 13s11p9d4f1g pattern {4111111111111/21111111111/211111111/1111/1}

Atom   0Cl   basis set group =>   1
Atom   1Cl   basis set group =>   1


           ************************************************************
           *        Program running with 24 parallel MPI-processes    *
           *              working on a common directory               *
           ************************************************************
------------------------------------------------------------------------------
                           ORCA GTO INTEGRAL CALCULATION
------------------------------------------------------------------------------

                         BASIS SET STATISTICS AND STARTUP INFO

 # of primitive gaussian shells          ...   60
 # of primitive gaussian functions       ...  144
 # of contracted shells                  ...   34
 # of contracted basis functions         ...  102
 Highest angular momentum                ...    3
 Maximum contraction depth               ...    7
 Integral package used                   ... LIBINT
 Integral threshhold            Thresh   ...  1.000e-10
 Primitive cut-off              TCut     ...  1.000e-11


------------------------------ INTEGRAL EVALUATION ----------------------------


 * One electron integrals 
 Pre-screening matrix                    ... done
 Shell pair data                         ... done (   0.000 sec)



           ************************************************************
           *        Program running with 24 parallel MPI-processes    *
           *              working on a common directory               *
           ************************************************************
-------------------------------------------------------------------------------
                                 ORCA SCF
-------------------------------------------------------------------------------

------------
SCF SETTINGS
------------
Hamiltonian:
 Density Functional     Method          .... DFT(GTOs)
 Exchange Functional    Exchange        .... M06
 Correlation Functional Correlation     .... M06
 Gradients option       PostSCFGGA      .... off
 Hybrid DFT is turned on
   Fraction HF Exchange ScalHFX         ....  0.270000
   Scaling of DF-GGA-X  ScalDFX         ....  0.730000
   Scaling of DF-GGA-C  ScalDFC         ....  1.000000
   Scaling of DF-LDA-C  ScalLDAC        ....  1.000000
   Perturbative correction              ....  0.000000
   Density functional embedding theory  .... OFF


General Settings:
 Integral files         IntName         .... 180_cl
 Hartree-Fock type      HFTyp           .... RHF
 Total Charge           Charge          ....    0
 Multiplicity           Mult            ....    1
 Number of Electrons    NEL             ....   34
 Basis Dimension        Dim             ....  102
 Nuclear Repulsion      ENuc            ....     74.6746614707 Eh

Convergence Acceleration:
 DIIS                   CNVDIIS         .... on
   Start iteration      DIISMaxIt       ....    12
   Startup error        DIISStart       ....  0.200000
   # of expansion vecs  DIISMaxEq       ....     5
   Bias factor          DIISBfac        ....   1.050
   Max. coefficient     DIISMaxC        ....  10.000
 Newton-Raphson         CNVNR           .... off
 SOSCF                  CNVSOSCF        .... on
   Start iteration      SOSCFMaxIt      ....   150
   Startup grad/error   SOSCFStart      ....  0.003300
 Level Shifting         CNVShift        .... on
   Level shift para.    LevelShift      ....    0.2500
   Turn off err/grad.   ShiftErr        ....    0.0010
 Zerner damping         CNVZerner       .... off
 Static damping         CNVDamp         .... on
   Fraction old density DampFac         ....    0.7000
   Max. Damping (<1)    DampMax         ....    0.9800
   Min. Damping (>=0)   DampMin         ....    0.0000
   Turn off err/grad.   DampErr         ....    0.1000
 Fernandez-Rico         CNVRico         .... off

SCF Procedure:
 Maximum # iterations   MaxIter         ....   125
 SCF integral mode      SCFMode         .... Direct
   Integral package                     .... LIBINT
 Reset frequency        DirectResetFreq ....    20
 Integral Threshold     Thresh          ....  1.000e-10 Eh
 Primitive CutOff       TCut            ....  1.000e-11 Eh

Convergence Tolerance:
 Convergence Check Mode ConvCheckMode   .... Total+1el-Energy
 Convergence forced     ConvForced      .... 0
 Energy Change          TolE            ....  1.000e-06 Eh
 1-El. energy change                    ....  1.000e-03 Eh
 Orbital Gradient       TolG            ....  5.000e-05
 Orbital Rotation angle TolX            ....  5.000e-05
 DIIS Error             TolErr          ....  1.000e-06


Diagonalization of the overlap matrix:
Smallest eigenvalue                        ... 2.001e-03
Time for diagonalization                   ...    0.003 sec
Threshold for overlap eigenvalues          ... 1.000e-08
Number of eigenvalues below threshold      ... 0
Time for construction of square roots      ...    0.001 sec
Total time needed                          ...    0.004 sec

-------------------
DFT GRID GENERATION
-------------------

General Integration Accuracy     IntAcc      ...  4.670
Radial Grid Type                 RadialGrid  ... Gauss-Chebyshev
Angular Grid (max. acc.)         AngularGrid ... Lebedev-302
Angular grid pruning method      GridPruning ... 3 (G Style)
Weight generation scheme         WeightScheme... Becke
Basis function cutoff            BFCut       ...    1.0000e-10
Integration weight cutoff        WCut        ...    1.0000e-14
Grids for H and He will be reduced by one unit

# of grid points (after initial pruning)     ...  13476 (   0.0 sec)
# of grid points (after weights+screening)   ...  13450 (   0.0 sec)
nearest neighbour list constructed           ...    0.0 sec
Grid point re-assignment to atoms done       ...    0.0 sec
Grid point division into batches done        ...    0.1 sec
Reduced shell lists constructed in    0.1 sec

Total number of grid points                  ...    13450
Total number of batches                      ...      212
Average number of points per batch           ...       63
Average number of grid points per atom       ...     6725
Average number of shells per batch           ...     6.60 (19.41%)
Average number of basis functions per batch  ...    19.60 (19.22%)
Average number of large shells per batch     ...     4.50 (68.18%)
Average number of large basis fcns per batch ...    13.10 (66.84%)
Maximum spatial batch extension              ...  19.50, 19.55, 12.87 au
Average spatial batch extension              ...   0.66,  0.66,  0.47 au

Time for grid setup =    0.153 sec

------------------------------
INITIAL GUESS: MODEL POTENTIAL
------------------------------
Loading Hartree-Fock densities                     ... done
Calculating cut-offs                               ... done
Setting up the integral package                    ... done
Initializing the effective Hamiltonian             ... done
Starting the Coulomb interaction                   ... done (   0.0 sec)
Reading the grid                                   ... done
Mapping shells                                     ... done
Starting the XC term evaluation                    ... done (   0.0 sec)
  promolecular density results
     # of electrons  =     33.999988380
     EX              =    -54.744626740
     EC              =     -1.327449846
     EX+EC           =    -56.072076586
Transforming the Hamiltonian                       ... done (   0.0 sec)
Diagonalizing the Hamiltonian                      ... done (   0.0 sec)
Back transforming the eigenvectors                 ... done (   0.0 sec)
Now organizing SCF variables                       ... done
                      ------------------
                      INITIAL GUESS DONE (   0.3 sec)
                      ------------------
--------------
SCF ITERATIONS
--------------
ITER       Energy         Delta-E        Max-DP      RMS-DP      [F,P]     Damp
               ***  Starting incremental Fock matrix formation  ***
  0   -920.3537939271   0.000000000000 0.00894400  0.00038006  0.0414554 0.7000
                      *** Initiating the SOSCF procedure ***
                      *** Re-Reading the Fockian *** 
                      *** Removing any level shift *** 
ITER      Energy       Delta-E        Grad      Rot      Max-DP    RMS-DP
  1   -920.35546082  -0.0016668880  0.002118  0.002118  0.025653  0.001051
               *** Restarting incremental Fock matrix formation ***
  2   -920.35870651  -0.0032456904  0.005075  0.007692  0.006152  0.000246
  3   -920.35869870   0.0000078016  0.005156  0.003684  0.002315  0.000120
  4   -920.35889657  -0.0001978707  0.000219  0.000192  0.000946  0.000023
  5   -920.35889702  -0.0000004412  0.000123  0.000066  0.000327  0.000008
                 **** Energy Check signals convergence ****
              ***Rediagonalizing the Fockian in SOSCF/NRSCF***

               *****************************************************
               *                     SUCCESS                       *
               *           SCF CONVERGED AFTER   6 CYCLES          *
               *****************************************************


----------------
TOTAL SCF ENERGY
----------------

Total Energy       :         -920.35889716 Eh          -25044.23882 eV

Components:
Nuclear Repulsion  :           74.67466147 Eh            2032.00084 eV
Electronic Energy  :         -995.03355863 Eh          -27076.23966 eV
One Electron Energy:        -1419.04403324 Eh          -38614.15125 eV
Two Electron Energy:          424.01047461 Eh           11537.91159 eV

Virial components:
Potential Energy   :        -1839.02098278 Eh          -50042.30504 eV
Kinetic Energy     :          918.66208562 Eh           24998.06623 eV
Virial Ratio       :            2.00184705


DFT components:
N(Alpha)           :       16.999995300501 electrons
N(Beta)            :       16.999995300501 electrons
N(Total)           :       33.999990601003 electrons
E(XC)              :      -41.561098424125 Eh       
DFET-embed. en.    :        0.000000000000 Eh       

---------------
SCF CONVERGENCE
---------------

  Last Energy change         ...   -1.4378e-07  Tolerance :   1.0000e-06
  Last MAX-Density change    ...    1.4784e-05  Tolerance :   1.0000e-05
  Last RMS-Density change    ...    5.4119e-07  Tolerance :   1.0000e-06
  Last Orbital Gradient      ...    9.0359e-06  Tolerance :   5.0000e-05
  Last Orbital Rotation      ...    5.9406e-06  Tolerance :   5.0000e-05

             **** THE GBW FILE WAS UPDATED (180_cl.gbw) ****
             **** DENSITY FILE WAS UPDATED (180_cl.scfp) ****
             **** ENERGY FILE WAS UPDATED (180_cl.en.tmp) ****
             **** THE GBW FILE WAS UPDATED (180_cl.gbw) ****
             **** DENSITY FILE WAS UPDATED (180_cl.scfp) ****
----------------
ORBITAL ENERGIES
----------------

  NO   OCC          E(Eh)            E(eV) 
   0   2.0000    -101.773549     -2769.3991 
   1   2.0000    -101.773540     -2769.3988 
   2   2.0000      -9.644928      -262.4518 
   3   2.0000      -9.644898      -262.4510 
   4   2.0000      -7.357855      -200.2174 
   5   2.0000      -7.357754      -200.2147 
   6   2.0000      -7.343659      -199.8311 
   7   2.0000      -7.343659      -199.8311 
   8   2.0000      -7.343657      -199.8311 
   9   2.0000      -7.343657      -199.8311 
  10   2.0000      -0.944977       -25.7141 
  11   2.0000      -0.794951       -21.6317 
  12   2.0000      -0.479565       -13.0496 
  13   2.0000      -0.413772       -11.2593 
  14   2.0000      -0.413772       -11.2593 
  15   2.0000      -0.320103        -8.7104 
  16   2.0000      -0.320103        -8.7104 
  17   0.0000      -0.132265        -3.5991 
  18   0.0000      -0.002698        -0.0734 
  19   0.0000       0.010577         0.2878 
  20   0.0000       0.010577         0.2878 
  21   0.0000       0.016887         0.4595 
  22   0.0000       0.036253         0.9865 
  23   0.0000       0.036253         0.9865 
  24   0.0000       0.051433         1.3996 
  25   0.0000       0.139605         3.7988 
  26   0.0000       0.139682         3.8009 
  27   0.0000       0.166794         4.5387 
  28   0.0000       0.166795         4.5387 
  29   0.0000       0.187919         5.1135 
  30   0.0000       0.228932         6.2296 
  31   0.0000       0.228992         6.2312 
  32   0.0000       0.239373         6.5137 
  33   0.0000       0.240140         6.5345 
  34   0.0000       0.287680         7.8282 
  35   0.0000       0.287680         7.8282 
  36   0.0000       0.427205        11.6248 
  37   0.0000       0.427205        11.6248 
  38   0.0000       0.465801        12.6751 
  39   0.0000       0.483268        13.1504 
  40   0.0000       0.483268        13.1504 
  41   0.0000       0.541052        14.7228 
  42   0.0000       0.541160        14.7257 
  43   0.0000       0.559624        15.2281 
  44   0.0000       0.559624        15.2281 
  45   0.0000       0.586837        15.9687 
  46   0.0000       0.586878        15.9698 
  47   0.0000       0.588971        16.0267 
  48   0.0000       0.628284        17.0965 
  49   0.0000       0.651941        17.7402 
  50   0.0000       0.651941        17.7402 
  51   0.0000       0.727867        19.8063 
  52   0.0000       0.818920        22.2839 
  53   0.0000       1.254150        34.1271 
  54   0.0000       1.757718        47.8299 
  55   0.0000       1.757718        47.8299 
  56   0.0000       1.797460        48.9114 
  57   0.0000       1.797566        48.9143 
  58   0.0000       1.851489        50.3816 
  59   0.0000       1.885791        51.3150 
  60   0.0000       1.886061        51.3223 
  61   0.0000       1.886205        51.3262 
  62   0.0000       1.893704        51.5303 
  63   0.0000       1.893704        51.5303 
  64   0.0000       1.926697        52.4281 
  65   0.0000       1.926697        52.4281 
  66   0.0000       1.948169        53.0124 
  67   0.0000       1.948309        53.0162 
  68   0.0000       2.040049        55.5126 
  69   0.0000       2.040049        55.5126 
  70   0.0000       2.072216        56.3879 
  71   0.0000       2.072216        56.3879 
  72   0.0000       2.184604        59.4461 
  73   0.0000       2.184933        59.4550 
  74   0.0000       2.240172        60.9582 
  75   0.0000       2.240172        60.9582 
  76   0.0000       2.243933        61.0605 
  77   0.0000       2.309463        62.8437 
  78   0.0000       2.309463        62.8437 
  79   0.0000       2.320058        63.1320 
  80   0.0000       2.383312        64.8532 
  81   0.0000       2.671894        72.7059 
  82   0.0000       2.671894        72.7059 
  83   0.0000       3.677539       100.0709 
  84   0.0000       8.120698       220.9754 
  85   0.0000       8.120842       220.9794 
  86   0.0000       8.143519       221.5964 
  87   0.0000       8.143519       221.5964 
  88   0.0000       8.157335       221.9724 
  89   0.0000       8.157474       221.9761 
  90   0.0000       8.180631       222.6063 
  91   0.0000       8.183280       222.6784 
  92   0.0000       8.183280       222.6784 
  93   0.0000       8.300972       225.8809 
  94   0.0000      10.763242       292.8827 
  95   0.0000      10.763242       292.8827 
  96   0.0000      10.880869       296.0835 
  97   0.0000      10.880869       296.0835 
  98   0.0000      10.899196       296.5822 
  99   0.0000      11.315989       307.9237 
 100   0.0000      24.644909       670.6221 
 101   0.0000      25.306095       688.6138 

                    ********************************
                    * MULLIKEN POPULATION ANALYSIS *
                    ********************************

-----------------------
MULLIKEN ATOMIC CHARGES
-----------------------
   0 Cl:    0.000000
   1 Cl:   -0.000000
Sum of atomic charges:   -0.0000000

--------------------------------
MULLIKEN REDUCED ORBITAL CHARGES
--------------------------------
  0 Cls       :     5.973967  s :     5.973967
      pz      :     3.000282  p :    10.960051
      px      :     3.979884
      py      :     3.979884
      dz2     :     0.023219  d :     0.060495
      dxz     :     0.018638
      dyz     :     0.018638
      dx2y2   :     0.000000
      dxy     :     0.000000
      f0      :     0.002531  f :     0.005486
      f+1     :     0.001478
      f-1     :     0.001478
      f+2     :     0.000000
      f-2     :     0.000000
      f+3     :     0.000000
      f-3     :     0.000000
  1 Cls       :     5.973967  s :     5.973967
      pz      :     3.000283  p :    10.960051
      px      :     3.979884
      py      :     3.979884
      dz2     :     0.023219  d :     0.060495
      dxz     :     0.018638
      dyz     :     0.018638
      dx2y2   :     0.000000
      dxy     :     0.000000
      f0      :     0.002531  f :     0.005486
      f+1     :     0.001478
      f-1     :     0.001478
      f+2     :    -0.000000
      f-2     :     0.000000
      f+3     :     0.000000
      f-3     :     0.000000


                     *******************************
                     * LOEWDIN POPULATION ANALYSIS *
                     *******************************

----------------------
LOEWDIN ATOMIC CHARGES
----------------------
   0 Cl:    0.000000
   1 Cl:   -0.000000

-------------------------------
LOEWDIN REDUCED ORBITAL CHARGES
-------------------------------
  0 Cls       :     5.720444  s :     5.720444
      pz      :     3.115283  p :    10.894241
      px      :     3.889479
      py      :     3.889479
      dz2     :     0.157389  d :     0.371748
      dxz     :     0.107179
      dyz     :     0.107179
      dx2y2   :     0.000000
      dxy     :     0.000000
      f0      :     0.006884  f :     0.013567
      f+1     :     0.003341
      f-1     :     0.003341
      f+2     :     0.000000
      f-2     :     0.000000
      f+3     :     0.000000
      f-3     :     0.000000
  1 Cls       :     5.720443  s :     5.720443
      pz      :     3.115283  p :    10.894241
      px      :     3.889479
      py      :     3.889479
      dz2     :     0.157389  d :     0.371748
      dxz     :     0.107179
      dyz     :     0.107179
      dx2y2   :     0.000000
      dxy     :     0.000000
      f0      :     0.006884  f :     0.013567
      f+1     :     0.003341
      f-1     :     0.003341
      f+2     :     0.000000
      f-2     :     0.000000
      f+3     :     0.000000
      f-3     :     0.000000


                      *****************************
                      * MAYER POPULATION ANALYSIS *
                      *****************************

  NA   - Mulliken gross atomic population
  ZA   - Total nuclear charge
  QA   - Mulliken gross atomic charge
  VA   - Mayer's total valence
  BVA  - Mayer's bonded valence
  FA   - Mayer's free valence

  ATOM       NA         ZA         QA         VA         BVA        FA
  0 Cl    17.0000    17.0000     0.0000     1.0289     1.0289    -0.0000
  1 Cl    17.0000    17.0000    -0.0000     1.0289     1.0289    -0.0000

  Mayer bond orders larger than 0.100000
B(  0-Cl,  1-Cl) :   1.0289 

-------
TIMINGS
-------

Total SCF time: 0 days 0 hours 0 min 1 sec 

Total time                  ....       1.304 sec
Sum of individual times     ....       1.112 sec  ( 85.3%)

Fock matrix formation       ....       0.834 sec  ( 64.0%)
  XC integration            ....       0.099 sec  ( 11.9% of F)
    Basis function eval.    ....       0.007 sec  (  7.0% of XC)
    Density eval.           ....       0.010 sec  ( 10.4% of XC)
    XC-Functional eval.     ....       0.026 sec  ( 26.6% of XC)
    XC-Potential eval.      ....       0.020 sec  ( 20.4% of XC)
Diagonalization             ....       0.003 sec  (  0.2%)
Density matrix formation    ....       0.002 sec  (  0.2%)
Population analysis         ....       0.003 sec  (  0.2%)
Initial guess               ....       0.113 sec  (  8.7%)
Orbital Transformation      ....       0.000 sec  (  0.0%)
Orbital Orthonormalization  ....       0.000 sec  (  0.0%)
DIIS solution               ....       0.000 sec  (  0.0%)
SOSCF solution              ....       0.004 sec  (  0.3%)
Grid generation             ....       0.153 sec  ( 11.7%)


-------------------------------------------------------------------------------
                          DFT DISPERSION CORRECTION                            
                                                                               
                              DFTD3 V3.1  Rev 1                                
                              USING zero damping                               
-------------------------------------------------------------------------------
The M06 functional is recognized
Active option DFTDOPT                   ...         3   

molecular C6(AA) [au] = 361.744334 


            DFT-D V3
 parameters
 s6 scaling factor         :     1.0000 
 rs6 scaling factor        :     1.3250 
 s8 scaling factor         :     0.0000 
 rs8 scaling factor        :     1.0000 
 Damping factor alpha6     :    14.0000 
 Damping factor alpha8     :    16.0000 
 ad hoc parameters k1-k3   :    16.0000     1.3333    -4.0000 

 Edisp/kcal,au: -0.000161777566  -0.000000257809 
 E6   /kcal   :  -0.000161778 
 E8   /kcal   :  -0.000000000 
 % E8         :   0.000000000 

-------------------------   ----------------
Dispersion correction           -0.000000258
-------------------------   ----------------


-------------------------   --------------------
FINAL SINGLE POINT ENERGY      -920.358897417387
-------------------------   --------------------


                            ***************************************
                            *     ORCA property calculations      *
                            ***************************************

                                    ---------------------
                                    Active property flags
                                    ---------------------
   (+) Dipole Moment


------------------------------------------------------------------------------
                       ORCA ELECTRIC PROPERTIES CALCULATION
------------------------------------------------------------------------------

Dipole Moment Calculation                       ... on
Quadrupole Moment Calculation                   ... off
Polarizability Calculation                      ... off
GBWName                                         ... 180_cl.gbw
Electron density file                           ... 180_cl.scfp
The origin for moment calculation is the CENTER OF MASS  = ( 0.000000,  0.000000  0.000000)

-------------
DIPOLE MOMENT
-------------
                                X             Y             Z
Electronic contribution:     -0.00000       0.00000      -0.00000
Nuclear contribution   :      0.00000       0.00000       0.00000
                        -----------------------------------------
Total Dipole Moment    :     -0.00000       0.00000      -0.00000
                        -----------------------------------------
Magnitude (a.u.)       :      0.00000
Magnitude (Debye)      :      0.00000



--------------------
Rotational spectrum 
--------------------
 
Rotational constants in cm-1:     0.000000     0.226737     0.226737 
Rotational constants in MHz :     0.000000  6797.405627  6797.405627 

 Dipole components along the rotational axes: 
x,y,z [a.u.] :    -0.000000     0.000000    -0.000000 
x,y,z [Debye]:    -0.000001     0.000001    -0.000000 

 

Timings for individual modules:

Sum of individual times         ...        2.562 sec (=   0.043 min)
GTO integral calculation        ...        0.820 sec (=   0.014 min)  32.0 %
SCF iterations                  ...        1.742 sec (=   0.029 min)  68.0 %
                             ****ORCA TERMINATED NORMALLY****
TOTAL RUN TIME: 0 days 0 hours 0 minutes 3 seconds 178 msec
