
                                 *****************
                                 * O   R   C   A *
                                 *****************

           --- An Ab Initio, DFT and Semiempirical electronic structure package ---

                  #######################################################
                  #                        -***-                        #
                  #          Department of theory and spectroscopy      #
                  #               Directorship: Frank Neese             #
                  #        Max Planck Institute fuer Kohlenforschung    #
                  #                Kaiser Wilhelm Platz 1               #
                  #                 D-45470 Muelheim/Ruhr               #
                  #                      Germany                        #
                  #                                                     #
                  #                  All rights reserved                #
                  #                        -***-                        #
                  #######################################################


                         Program Version 4.2.0 -  RELEASE  -


 With contributions from (in alphabetic order):
   Daniel Aravena         : Magnetic Suceptibility
   Michael Atanasov       : Ab Initio Ligand Field Theory (pilot matlab implementation)
   Alexander A. Auer      : GIAO ZORA, VPT2
   Ute Becker             : Parallelization
   Giovanni Bistoni       : ED, misc. LED, open-shell LED, HFLED
   Martin Brehm           : Molecular dynamics
   Dmytro Bykov           : SCF Hessian
   Vijay G. Chilkuri      : MRCI spin determinant printing, contributions to CSF-ICE
   Dipayan Datta          : RHF DLPNO-CCSD density
   Achintya Kumar Dutta   : EOM-CC, STEOM-CC
   Dmitry Ganyushin       : Spin-Orbit,Spin-Spin,Magnetic field MRCI
   Miquel Garcia          : C-PCM Hessian, Gaussian charge scheme
   Yang Guo               : DLPNO-NEVPT2, CIM, IAO-localization
   Andreas Hansen         : Spin unrestricted coupled pair/coupled cluster methods
   Benjamin Helmich-Paris : CASSCF linear response (MC-RPA)
   Lee Huntington         : MR-EOM, pCC
   Robert Izsak           : Overlap fitted RIJCOSX, COSX-SCS-MP3, EOM
   Christian Kollmar      : KDIIS, OOCD, Brueckner-CCSD(T), CCSD density
   Simone Kossmann        : Meta GGA functionals, TD-DFT gradient, OOMP2, MP2 Hessian
   Martin Krupicka        : AUTO-CI
   Lucas Lang             : DCDCAS
   Dagmar Lenk            : GEPOL surface, SMD
   Dimitrios Liakos       : Extrapolation schemes; Compound Job, initial MDCI parallelization
   Dimitrios Manganas     : Further ROCIS development; embedding schemes
   Dimitrios Pantazis     : SARC Basis sets
   Taras Petrenko         : DFT Hessian,TD-DFT gradient, ASA, ECA, R-Raman, ABS, FL, XAS/XES, NRVS
   Peter Pinski           : DLPNO-MP2, DLPNO-MP2 Gradient
   Christoph Reimann      : Effective Core Potentials
   Marius Retegan         : Local ZFS, SOC
   Christoph Riplinger    : Optimizer, TS searches, QM/MM, DLPNO-CCSD(T), (RO)-DLPNO pert. Triples
   Tobias Risthaus        : Range-separated hybrids, TD-DFT gradient, RPA, STAB
   Michael Roemelt        : Original ROCIS implementation
   Masaaki Saitow         : Open-shell DLPNO-CCSD energy and density
   Barbara Sandhoefer     : DKH picture change effects
   Avijit Sen             : IP-ROCIS
   Kantharuban Sivalingam : CASSCF convergence, NEVPT2, FIC-MRCI
   Bernardo de Souza      : ESD, SOC TD-DFT
   Georgi Stoychev        : AutoAux, RI-MP2 NMR
   Willem Van den Heuvel  : Paramagnetic NMR
   Boris Wezisla          : Elementary symmetry handling
   Frank Wennmohs         : Technical directorship


 We gratefully acknowledge several colleagues who have allowed us to
 interface, adapt or use parts of their codes:
   Stefan Grimme, W. Hujo, H. Kruse,             : VdW corrections, initial TS optimization,
                  C. Bannwarth                     DFT functionals, gCP, sTDA/sTD-DF
   Ed Valeev, F. Pavosevic, A. Kumar             : LibInt (2-el integral package), F12 methods
   Garnet Chan, S. Sharma, J. Yang, R. Olivares  : DMRG
   Ulf Ekstrom                                   : XCFun DFT Library
   Mihaly Kallay                                 : mrcc  (arbitrary order and MRCC methods)
   Andreas Klamt, Michael Diedenhofen            : otool_cosmo (COSMO solvation model)
   Jiri Pittner, Ondrej Demel                    : Mk-CCSD
   Frank Weinhold                                : gennbo (NPA and NBO analysis)
   Christopher J. Cramer and Donald G. Truhlar   : smd solvation model
   Lars Goerigk                                  : TD-DFT with DH, B97 family of functionals
   V. Asgeirsson, H. Jonsson                     : NEB implementation
   FAccTs GmbH                                   : IRC, NEB, NEB-TS, Multilevel, MM, QM/MM, CI optimization
   S Lehtola, MJT Oliveira, MAL Marques          : LibXC Library


 Your calculation uses the libint2 library for the computation of 2-el integrals
 For citations please refer to: http://libint.valeyev.net

 Your ORCA version has been built with support for libXC version: 4.2.3
 For citations please refer to: https://tddft.org/programs/libxc/

 This ORCA versions uses:
   CBLAS   interface :  Fast vector & matrix operations
   LAPACKE interface :  Fast linear algebra routines
   SCALAPACK package :  Parallel linear algebra routines


Your calculation utilizes the atom-pairwise dispersion correction
with the Becke-Johnson damping scheme (D3BJ)
Cite in your paper:
S.Grimme, S.Ehrlich, L.Goerigk, J Comput Chem, (2011), 32, 1456–1465 
S.Grimme, J.Antony, S.Ehrlich and H.Krieg, J.Chem.Phys., 132, (2010), 154104 
   

----- Orbital basis set information -----
Your calculation utilizes the basis: def2-TZVPPD
   F. Weigend and R. Ahlrichs, Phys. Chem. Chem. Phys. 7, 3297 (2005).
   D. Rappoport and F. Furche, J. Chem. Phys. 133 134105 (2010).

----- AuxC basis set information -----
Your calculation utilizes the auxiliary basis: def2-TZVPPD/C
   A. Hellweg, C. Hattig, S. Hofener and W. Klopper, Theor. Chem. Acc. 117, 587 (2007).

----- AuxJK basis set information -----
Your calculation utilizes the auxiliary basis: def2/JK
   H-Ba, Hf-Rn: F. Weigend, J. Comput. Chem. 29, 167 (2008).

================================================================================
                                        WARNINGS
                       Please study these warnings very carefully!
================================================================================


WARNING: No MP2 level density has been requested!
         To caclulate MP2 level properties use
         %mp2 Density relaxed end
         or
         %mp2 Density unrelaxed end
         Otherwise for double-hybrid DFT only the energy is correct!

WARNING: The frozen-core approximation is turned on by default for 
         the MP2 part of double-hybrid DFT.

INFO   : the flag for use of LIBINT has been found!

================================================================================
                                       INPUT FILE
================================================================================
NAME = 070.in
|  1> #
|  2> # 070 ri-B2PLYP-D3BJ/Def2-TZVPPD
|  3> #
|  4> ! rijk ri-b2plyp d3bj def2-tzvppd def2/jk def2-tzvppd/c grid4 nofinalgrid
|  5> 
|  6> *xyz 0 1
|  7> H          0.08530       -0.02655        1.60712
|  8> H          0.90656       -0.78582       -1.39861
|  9> Be        -0.05035        0.92778       -0.02639
| 10> H          0.07901        0.71807        1.80526
| 11> F         -0.04624       -1.68577        0.17900
| 12> C         -0.00461       -0.62157       -0.79461
| 13> H         -0.11623        2.26790        0.10895
| 14> H         -0.85344       -0.79405       -1.48072
| 15> *
| 16> 
| 17> %maxcore 5000
| 18> 
| 19> %pal
| 20> nprocs = 24
| 21> end
| 22> 
| 23> 
| 24>                          ****END OF INPUT****
================================================================================

                       ****************************
                       * Single Point Calculation *
                       ****************************

---------------------------------
CARTESIAN COORDINATES (ANGSTROEM)
---------------------------------
  H      0.085300   -0.026550    1.607120
  H      0.906560   -0.785820   -1.398610
  Be    -0.050350    0.927780   -0.026390
  H      0.079010    0.718070    1.805260
  F     -0.046240   -1.685770    0.179000
  C     -0.004610   -0.621570   -0.794610
  H     -0.116230    2.267900    0.108950
  H     -0.853440   -0.794050   -1.480720

----------------------------
CARTESIAN COORDINATES (A.U.)
----------------------------
  NO LB      ZA    FRAG     MASS         X           Y           Z
   0 H     1.0000    0     1.008    0.161194   -0.050172    3.037017
   1 H     1.0000    0     1.008    1.713150   -1.484985   -2.642990
   2 Be    4.0000    0     9.012   -0.095148    1.753250   -0.049870
   3 H     1.0000    0     1.008    0.149307    1.356956    3.411447
   4 F     9.0000    0    18.998   -0.087381   -3.185644    0.338261
   5 C     6.0000    0    12.011   -0.008712   -1.174597   -1.501595
   6 H     1.0000    0     1.008   -0.219643    4.285710    0.205886
   7 H     1.0000    0     1.008   -1.612768   -1.500537   -2.798155

--------------------------------
INTERNAL COORDINATES (ANGSTROEM)
--------------------------------
 H      0   0   0     0.000000000000     0.00000000     0.00000000
 H      1   0   0     3.207081500898     0.00000000     0.00000000
 Be     1   2   0     1.896708093382    47.95385863     0.00000000
 H      1   2   3     0.770556920740   118.15536226   332.61515603
 F      2   1   3     2.050997599852    42.60999464   224.74103801
 C      2   1   3     1.105452319822    40.68306355   290.68814003
 H      3   1   2     1.348546886245   114.64955815   203.02665553
 H      6   2   1     1.104992602419   105.70707496   180.80386071

---------------------------
INTERNAL COORDINATES (A.U.)
---------------------------
 H      0   0   0     0.000000000000     0.00000000     0.00000000
 H      1   0   0     6.060505725862     0.00000000     0.00000000
 Be     1   2   0     3.584258852484    47.95385863     0.00000000
 H      1   2   3     1.456141550796   118.15536226   332.61515603
 F      2   1   3     3.875823765051    42.60999464   224.74103801
 C      2   1   3     2.089002138572    40.68306355   290.68814003
 H      3   1   2     2.548384293755   114.64955815   203.02665553
 H      6   2   1     2.088133398580   105.70707496   180.80386071

---------------------
BASIS SET INFORMATION
---------------------
There are 4 groups of distinct atoms

 Group   1 Type H   : 5s3p1d contracted to 3s3p1d pattern {311/111/1}
 Group   2 Type Be  : 11s5p1d contracted to 5s4p1d pattern {62111/1211/1}
 Group   3 Type F   : 12s7p3d1f contracted to 6s4p3d1f pattern {621111/4111/111/1}
 Group   4 Type C   : 12s6p3d1f contracted to 6s3p3d1f pattern {621111/411/111/1}

Atom   0H    basis set group =>   1
Atom   1H    basis set group =>   1
Atom   2Be   basis set group =>   2
Atom   3H    basis set group =>   1
Atom   4F    basis set group =>   3
Atom   5C    basis set group =>   4
Atom   6H    basis set group =>   1
Atom   7H    basis set group =>   1
---------------------------------
AUXILIARY/C BASIS SET INFORMATION
---------------------------------
There are 4 groups of distinct atoms

 Group   1 Type H   : 5s4p3d1f contracted to 5s4p3d1f pattern {11111/1111/111/1}
 Group   2 Type Be  : 10s7p4d1f contracted to 10s7p4d1f pattern {1111111111/1111111/1111/1}
 Group   3 Type F   : 9s7p6d4f1g contracted to 9s7p5d4f1g pattern {111111111/1111111/21111/1111/1}
 Group   4 Type C   : 9s7p6d4f1g contracted to 9s7p5d4f1g pattern {111111111/1111111/21111/1111/1}

Atom   0H    basis set group =>   1
Atom   1H    basis set group =>   1
Atom   2Be   basis set group =>   2
Atom   3H    basis set group =>   1
Atom   4F    basis set group =>   3
Atom   5C    basis set group =>   4
Atom   6H    basis set group =>   1
Atom   7H    basis set group =>   1
----------------------------------
AUXILIARY/JK BASIS SET INFORMATION
----------------------------------
There are 4 groups of distinct atoms

 Group   1 Type H   : 4s2p2d contracted to 2s2p2d pattern {31/11/11}
 Group   2 Type Be  : 10s7p4d2f contracted to 7s5p3d2f pattern {4111111/31111/211/11}
 Group   3 Type F   : 14s10p6d2f1g contracted to 10s8p4d2f1g pattern {5111111111/31111111/3111/11/1}
 Group   4 Type C   : 14s10p6d2f1g contracted to 10s8p5d1f1g pattern {5111111111/31111111/21111/2/1}

Atom   0H    basis set group =>   1
Atom   1H    basis set group =>   1
Atom   2Be   basis set group =>   2
Atom   3H    basis set group =>   1
Atom   4F    basis set group =>   3
Atom   5C    basis set group =>   4
Atom   6H    basis set group =>   1
Atom   7H    basis set group =>   1


           ************************************************************
           *        Program running with 24 parallel MPI-processes    *
           *              working on a common directory               *
           ************************************************************
------------------------------------------------------------------------------
                           ORCA GTO INTEGRAL CALCULATION
                           -- RI-GTO INTEGRALS CHOSEN --
------------------------------------------------------------------------------

                         BASIS SET STATISTICS AND STARTUP INFO

Gaussian basis set:
 # of primitive gaussian shells          ...  107
 # of primitive gaussian functions       ...  233
 # of contracted shells                  ...   72
 # of contracted basis functions         ...  184
 Highest angular momentum                ...    3
 Maximum contraction depth               ...    6
Auxiliary gaussian basis set:
 # of primitive gaussian shells          ...  129
 # of primitive gaussian functions       ...  359
 # of contracted shells                  ...   97
 # of contracted aux-basis functions     ...  293
 Highest angular momentum                ...    4
 Maximum contraction depth               ...    5
Ratio of auxiliary to basis functions    ...  1.59
Integral package used                  ... LIBINT
 One Electron integrals                  ... done
 Ordering auxiliary basis shells         ... done
 Integral threshhold             Thresh  ...  1.000e-10
 Primitive cut-off               TCut    ...  1.000e-11
 Pre-screening matrix                    ... done
 Shell pair data                         ... 
 Ordering of the shell pairs             ... done (   0.000 sec) 2577 of 2628 pairs
 Determination of significant pairs      ... done (   0.000 sec)
 Creation of shell pair data             ... done (   0.000 sec)
 Storage of shell pair data              ... done (   0.012 sec)
 Shell pair data done in (   0.013 sec)
 Computing two index integrals           ... done
 Cholesky decomposition of the V-matrix  ... done


Timings:
 Total evaluation time                   ...   0.181 sec (  0.003 min)
 One electron matrix time                ...   0.026 sec (  0.000 min) = 14.2%
 Schwartz matrix evaluation time         ...   0.120 sec (  0.002 min) = 66.3%
 Two index repulsion integral time       ...   0.002 sec (  0.000 min) =  0.9%
 Cholesky decomposition of V             ...   0.002 sec (  0.000 min) =  1.0%
 Three index repulsion integral time     ...   0.000 sec (  0.000 min) =  0.0%



           ************************************************************
           *        Program running with 24 parallel MPI-processes    *
           *              working on a common directory               *
           ************************************************************
-------------------------------------------------------------------------------
                                 ORCA SCF
-------------------------------------------------------------------------------

------------
SCF SETTINGS
------------
Hamiltonian:
 Density Functional     Method          .... DFT(GTOs)
 Exchange Functional    Exchange        .... B88
   X-Alpha parameter    XAlpha          ....  0.666667
   Becke's b parameter  XBeta           ....  0.004200
 Correlation Functional Correlation     .... LYP
 LDA part of GGA corr.  LDAOpt          .... VWN-3
 Gradients option       PostSCFGGA      .... off
 Hybrid DFT is turned on
   Fraction HF Exchange ScalHFX         ....  0.530000
   Scaling of DF-GGA-X  ScalDFX         ....  0.470000
   Scaling of DF-GGA-C  ScalDFC         ....  0.730000
   Scaling of DF-LDA-C  ScalLDAC        ....  0.730000
   Perturbative correction              ....  0.270000
   Density functional embedding theory  .... OFF
 RI-approximation to the Coulomb term is turned on
   Number of auxiliary basis functions  .... 293
   RI-JK (J+K treated both via RI)      .... on


General Settings:
 Integral files         IntName         .... 070
 Hartree-Fock type      HFTyp           .... RHF
 Total Charge           Charge          ....    0
 Multiplicity           Mult            ....    1
 Number of Electrons    NEL             ....   24
 Basis Dimension        Dim             ....  184
 Nuclear Repulsion      ENuc            ....     61.1525331119 Eh

Convergence Acceleration:
 DIIS                   CNVDIIS         .... on
   Start iteration      DIISMaxIt       ....    12
   Startup error        DIISStart       ....  0.200000
   # of expansion vecs  DIISMaxEq       ....     5
   Bias factor          DIISBfac        ....   1.050
   Max. coefficient     DIISMaxC        ....  10.000
 Newton-Raphson         CNVNR           .... off
 SOSCF                  CNVSOSCF        .... on
   Start iteration      SOSCFMaxIt      ....   150
   Startup grad/error   SOSCFStart      ....  0.003300
 Level Shifting         CNVShift        .... on
   Level shift para.    LevelShift      ....    0.2500
   Turn off err/grad.   ShiftErr        ....    0.0010
 Zerner damping         CNVZerner       .... off
 Static damping         CNVDamp         .... on
   Fraction old density DampFac         ....    0.7000
   Max. Damping (<1)    DampMax         ....    0.9800
   Min. Damping (>=0)   DampMin         ....    0.0000
   Turn off err/grad.   DampErr         ....    0.1000
 Fernandez-Rico         CNVRico         .... off

SCF Procedure:
 Maximum # iterations   MaxIter         ....   125
 SCF integral mode      SCFMode         .... Direct
   Integral package                     .... LIBINT
 Reset frequency        DirectResetFreq ....    20
 Integral Threshold     Thresh          ....  1.000e-10 Eh
 Primitive CutOff       TCut            ....  1.000e-11 Eh

Convergence Tolerance:
 Convergence Check Mode ConvCheckMode   .... Total+1el-Energy
 Convergence forced     ConvForced      .... 0
 Energy Change          TolE            ....  1.000e-06 Eh
 1-El. energy change                    ....  1.000e-03 Eh
 Orbital Gradient       TolG            ....  5.000e-05
 Orbital Rotation angle TolX            ....  5.000e-05
 DIIS Error             TolErr          ....  1.000e-06


Diagonalization of the overlap matrix:
Smallest eigenvalue                        ... 3.700e-05
Time for diagonalization                   ...    0.008 sec
Threshold for overlap eigenvalues          ... 1.000e-08
Number of eigenvalues below threshold      ... 0
Time for construction of square roots      ...    0.004 sec
Total time needed                          ...    0.012 sec

-------------------
DFT GRID GENERATION
-------------------

General Integration Accuracy     IntAcc      ...  4.670
Radial Grid Type                 RadialGrid  ... Gauss-Chebyshev
Angular Grid (max. acc.)         AngularGrid ... Lebedev-302
Angular grid pruning method      GridPruning ... 3 (G Style)
Weight generation scheme         WeightScheme... Becke
Basis function cutoff            BFCut       ...    1.0000e-10
Integration weight cutoff        WCut        ...    1.0000e-14
Grids for H and He will be reduced by one unit

# of grid points (after initial pruning)     ...  35414 (   0.0 sec)
# of grid points (after weights+screening)   ...  33837 (   0.0 sec)
nearest neighbour list constructed           ...    0.0 sec
Grid point re-assignment to atoms done       ...    0.0 sec
Grid point division into batches done        ...    0.1 sec
Reduced shell lists constructed in    0.1 sec

Total number of grid points                  ...    33837
Total number of batches                      ...      532
Average number of points per batch           ...       63
Average number of grid points per atom       ...     4230
Average number of shells per batch           ...    42.46 (58.97%)
Average number of basis functions per batch  ...   106.38 (57.81%)
Average number of large shells per batch     ...    34.42 (81.06%)
Average number of large basis fcns per batch ...    84.58 (79.51%)
Average number of aux-shells per batch       ...    42.46 (43.77%)
Average number of aux functions per batch    ...   106.38 (36.31%)
Maximum spatial batch extension              ...  18.83, 12.62, 17.46 au
Average spatial batch extension              ...   0.28,  0.21,  0.26 au

Time for grid setup =    0.178 sec

------------------------------
INITIAL GUESS: MODEL POTENTIAL
------------------------------
Loading Hartree-Fock densities                     ... done
Calculating cut-offs                               ... done
Setting up the integral package                    ... done
Initializing the effective Hamiltonian             ... done
Starting the Coulomb interaction                   ... done (   0.0 sec)
Reading the grid                                   ... done
Mapping shells                                     ... done
Starting the XC term evaluation                    ... done (   0.0 sec)
  promolecular density results
     # of electrons  =     23.997510267
     EX              =    -19.324767475
     EC              =     -0.231414865
     EX+EC           =    -19.556182340
Transforming the Hamiltonian                       ... done (   0.0 sec)
Diagonalizing the Hamiltonian                      ... done (   0.0 sec)
Back transforming the eigenvectors                 ... done (   0.0 sec)
Now organizing SCF variables                       ... done
                      ------------------
                      INITIAL GUESS DONE (   0.3 sec)
                      ------------------
--------------
SCF ITERATIONS
--------------
ITER       Energy         Delta-E        Max-DP      RMS-DP      [F,P]     Damp
  0   -155.3540387955   0.000000000000 0.03007037  0.00081502  0.1550499 0.7000
  1   -155.3132411397   0.040797655851 0.02446959  0.00078941  0.1265399 0.7000
                               ***Turning on DIIS***
  2   -155.3325167098  -0.019275570133 0.05864356  0.00182931  0.0822958 0.0000
  3   -155.4054415881  -0.072924878279 0.02464764  0.00051292  0.0821634 0.0000
  4   -155.4172172016  -0.011775613537 0.00823981  0.00021095  0.0235874 0.0000
  5   -155.4183248492  -0.001107647589 0.00424550  0.00009362  0.0091649 0.0000
  6   -155.4185381605  -0.000213311341 0.00285915  0.00004213  0.0037105 0.0000
                      *** Initiating the SOSCF procedure ***
                           *** Shutting down DIIS ***
                      *** Re-Reading the Fockian *** 
                      *** Removing any level shift *** 
ITER      Energy       Delta-E        Grad      Rot      Max-DP    RMS-DP
  7   -155.41857140  -0.0000332398  0.000257  0.000257  0.001690  0.000022
  8   -155.41857586  -0.0000044591  0.000099  0.000210  0.001237  0.000018
  9   -155.41857627  -0.0000004124  0.000061  0.000046  0.000284  0.000005
                 **** Energy Check signals convergence ****
              ***Rediagonalizing the Fockian in SOSCF/NRSCF***

               *****************************************************
               *                     SUCCESS                       *
               *           SCF CONVERGED AFTER  10 CYCLES          *
               *****************************************************


----------------
TOTAL SCF ENERGY
----------------

Total Energy       :         -155.41857635 Eh           -4229.15447 eV

Components:
Nuclear Repulsion  :           61.15253311 Eh            1664.04502 eV
Electronic Energy  :         -216.57110946 Eh           -5893.19949 eV
One Electron Energy:         -334.63942972 Eh           -9106.00182 eV
Two Electron Energy:          118.06832026 Eh            3212.80233 eV

Virial components:
Potential Energy   :         -310.27820287 Eh           -8443.09914 eV
Kinetic Energy     :          154.85962653 Eh            4213.94467 eV
Virial Ratio       :            2.00360940


DFT components:
N(Alpha)           :       11.999977351990 electrons
N(Beta)            :       11.999977351990 electrons
N(Total)           :       23.999954703981 electrons
E(X)               :       -9.291914622246 Eh       
E(C)               :       -0.562258728236 Eh       
E(XC)              :       -9.854173350482 Eh       
DFET-embed. en.    :        0.000000000000 Eh       

---------------
SCF CONVERGENCE
---------------

  Last Energy change         ...   -7.6179e-08  Tolerance :   1.0000e-06
  Last MAX-Density change    ...    7.2242e-05  Tolerance :   1.0000e-05
  Last RMS-Density change    ...    1.7759e-06  Tolerance :   1.0000e-06
  Last Orbital Gradient      ...    1.4180e-05  Tolerance :   5.0000e-05
  Last Orbital Rotation      ...    1.7081e-05  Tolerance :   5.0000e-05

             **** THE GBW FILE WAS UPDATED (070.gbw) ****
             **** DENSITY FILE WAS UPDATED (070.scfp) ****
             **** ENERGY FILE WAS UPDATED (070.en.tmp) ****
             **** THE GBW FILE WAS UPDATED (070.gbw) ****
             **** DENSITY FILE WAS UPDATED (070.scfp) ****
----------------
ORBITAL ENERGIES
----------------

  NO   OCC          E(Eh)            E(eV) 
   0   2.0000     -25.326203      -689.1610 
   1   2.0000     -10.655895      -289.9616 
   2   2.0000      -4.297761      -116.9480 
   3   2.0000      -1.327140       -36.1133 
   4   2.0000      -0.769709       -20.9449 
   5   2.0000      -0.595749       -16.2112 
   6   2.0000      -0.544472       -14.8158 
   7   2.0000      -0.540147       -14.6981 
   8   2.0000      -0.506921       -13.7940 
   9   2.0000      -0.414739       -11.2856 
  10   2.0000      -0.380238       -10.3468 
  11   2.0000      -0.348937        -9.4950 
  12   0.0000       0.002985         0.0812 
  13   0.0000       0.025547         0.6952 
  14   0.0000       0.035566         0.9678 
  15   0.0000       0.040092         1.0910 
  16   0.0000       0.062987         1.7140 
  17   0.0000       0.067181         1.8281 
  18   0.0000       0.080031         2.1778 
  19   0.0000       0.103781         2.8240 
  20   0.0000       0.124162         3.3786 
  21   0.0000       0.128480         3.4961 
  22   0.0000       0.131157         3.5690 
  23   0.0000       0.154325         4.1994 
  24   0.0000       0.163070         4.4374 
  25   0.0000       0.180461         4.9106 
  26   0.0000       0.190992         5.1972 
  27   0.0000       0.203035         5.5249 
  28   0.0000       0.215190         5.8556 
  29   0.0000       0.218403         5.9430 
  30   0.0000       0.232811         6.3351 
  31   0.0000       0.254699         6.9307 
  32   0.0000       0.263979         7.1832 
  33   0.0000       0.265700         7.2301 
  34   0.0000       0.274866         7.4795 
  35   0.0000       0.289050         7.8654 
  36   0.0000       0.295079         8.0295 
  37   0.0000       0.327754         8.9186 
  38   0.0000       0.329408         8.9636 
  39   0.0000       0.340611         9.2685 
  40   0.0000       0.349244         9.5034 
  41   0.0000       0.360293         9.8041 
  42   0.0000       0.365353         9.9418 
  43   0.0000       0.380937        10.3658 
  44   0.0000       0.388124        10.5614 
  45   0.0000       0.392986        10.6937 
  46   0.0000       0.409837        11.1522 
  47   0.0000       0.443871        12.0783 
  48   0.0000       0.466296        12.6886 
  49   0.0000       0.482878        13.1398 
  50   0.0000       0.495522        13.4839 
  51   0.0000       0.496761        13.5176 
  52   0.0000       0.525791        14.3075 
  53   0.0000       0.546090        14.8599 
  54   0.0000       0.591778        16.1031 
  55   0.0000       0.597095        16.2478 
  56   0.0000       0.604354        16.4453 
  57   0.0000       0.645809        17.5733 
  58   0.0000       0.667246        18.1567 
  59   0.0000       0.671570        18.2743 
  60   0.0000       0.686910        18.6918 
  61   0.0000       0.702358        19.1121 
  62   0.0000       0.710243        19.3267 
  63   0.0000       0.714037        19.4299 
  64   0.0000       0.739131        20.1128 
  65   0.0000       0.754265        20.5246 
  66   0.0000       0.777056        21.1448 
  67   0.0000       0.803961        21.8769 
  68   0.0000       0.820780        22.3346 
  69   0.0000       0.849498        23.1160 
  70   0.0000       0.869576        23.6624 
  71   0.0000       0.901446        24.5296 
  72   0.0000       0.945766        25.7356 
  73   0.0000       0.972087        26.4518 
  74   0.0000       1.063001        28.9257 
  75   0.0000       1.090431        29.6721 
  76   0.0000       1.103945        30.0399 
  77   0.0000       1.120024        30.4774 
  78   0.0000       1.133654        30.8483 
  79   0.0000       1.156585        31.4723 
  80   0.0000       1.196799        32.5666 
  81   0.0000       1.208580        32.8871 
  82   0.0000       1.235026        33.6068 
  83   0.0000       1.269946        34.5570 
  84   0.0000       1.280098        34.8332 
  85   0.0000       1.333579        36.2885 
  86   0.0000       1.339616        36.4528 
  87   0.0000       1.387372        37.7523 
  88   0.0000       1.425531        38.7907 
  89   0.0000       1.436377        39.0858 
  90   0.0000       1.488638        40.5079 
  91   0.0000       1.558384        42.4058 
  92   0.0000       1.583428        43.0873 
  93   0.0000       1.651837        44.9488 
  94   0.0000       1.718685        46.7678 
  95   0.0000       1.732525        47.1444 
  96   0.0000       1.937394        52.7192 
  97   0.0000       1.952081        53.1188 
  98   0.0000       2.204197        59.9793 
  99   0.0000       2.366319        64.3908 
 100   0.0000       2.443908        66.5021 
 101   0.0000       2.483543        67.5806 
 102   0.0000       2.510370        68.3106 
 103   0.0000       2.552910        69.4682 
 104   0.0000       2.624850        71.4258 
 105   0.0000       2.658724        72.3476 
 106   0.0000       2.737754        74.4981 
 107   0.0000       2.847588        77.4868 
 108   0.0000       2.876877        78.2838 
 109   0.0000       2.916975        79.3749 
 110   0.0000       2.983389        81.1821 
 111   0.0000       3.035230        82.5928 
 112   0.0000       3.056816        83.1802 
 113   0.0000       3.134309        85.2889 
 114   0.0000       3.144471        85.5654 
 115   0.0000       3.154275        85.8322 
 116   0.0000       3.246668        88.3463 
 117   0.0000       3.297402        89.7269 
 118   0.0000       3.318994        90.3144 
 119   0.0000       3.337914        90.8293 
 120   0.0000       3.381372        92.0118 
 121   0.0000       3.409379        92.7739 
 122   0.0000       3.434614        93.4606 
 123   0.0000       3.438493        93.5662 
 124   0.0000       3.473607        94.5217 
 125   0.0000       3.522682        95.8570 
 126   0.0000       3.563500        96.9678 
 127   0.0000       3.602227        98.0216 
 128   0.0000       3.628527        98.7373 
 129   0.0000       3.639852        99.0454 
 130   0.0000       3.665225        99.7358 
 131   0.0000       3.704931       100.8163 
 132   0.0000       3.758612       102.2770 
 133   0.0000       3.833447       104.3134 
 134   0.0000       3.843640       104.5908 
 135   0.0000       3.851656       104.8089 
 136   0.0000       3.872609       105.3790 
 137   0.0000       3.920788       106.6901 
 138   0.0000       3.948058       107.4321 
 139   0.0000       3.966207       107.9260 
 140   0.0000       4.055276       110.3497 
 141   0.0000       4.089189       111.2725 
 142   0.0000       4.170783       113.4928 
 143   0.0000       4.174808       113.6023 
 144   0.0000       4.182739       113.8181 
 145   0.0000       4.236224       115.2735 
 146   0.0000       4.265744       116.0768 
 147   0.0000       4.287922       116.6803 
 148   0.0000       4.316926       117.4695 
 149   0.0000       4.385664       119.3400 
 150   0.0000       4.397916       119.6734 
 151   0.0000       4.489132       122.1555 
 152   0.0000       4.538042       123.4864 
 153   0.0000       4.795774       130.4996 
 154   0.0000       4.804514       130.7375 
 155   0.0000       5.008894       136.2989 
 156   0.0000       5.012853       136.4067 
 157   0.0000       5.251311       142.8954 
 158   0.0000       5.291114       143.9785 
 159   0.0000       5.374669       146.2522 
 160   0.0000       5.416718       147.3964 
 161   0.0000       5.475876       149.0062 
 162   0.0000       5.568743       151.5332 
 163   0.0000       5.617394       152.8571 
 164   0.0000       5.694175       154.9464 
 165   0.0000       5.883499       160.0981 
 166   0.0000       6.200515       168.7246 
 167   0.0000       6.779429       184.4776 
 168   0.0000       7.082701       192.7301 
 169   0.0000       7.123890       193.8509 
 170   0.0000       7.146386       194.4631 
 171   0.0000       7.209787       196.1883 
 172   0.0000       7.271834       197.8767 
 173   0.0000       7.489434       203.7979 
 174   0.0000       7.497423       204.0153 
 175   0.0000       7.606411       206.9810 
 176   0.0000       8.364283       227.6037 
 177   0.0000       8.819693       239.9961 
 178   0.0000       8.837139       240.4708 
 179   0.0000       9.072746       246.8820 
 180   0.0000       9.092897       247.4303 
 181   0.0000       9.580221       260.6911 
 182   0.0000      23.430114       637.5658 
 183   0.0000      58.074928      1580.2991 

                    ********************************
                    * MULLIKEN POPULATION ANALYSIS *
                    ********************************

-----------------------
MULLIKEN ATOMIC CHARGES
-----------------------
   0 H :    0.089175
   1 H :   -0.036515
   2 Be:    0.109335
   3 H :   -0.068782
   4 F :   -0.346565
   5 C :    0.355574
   6 H :   -0.068146
   7 H :   -0.034075
Sum of atomic charges:    0.0000000

--------------------------------
MULLIKEN REDUCED ORBITAL CHARGES
--------------------------------
  0 H s       :     0.868565  s :     0.868565
      pz      :     0.005032  p :     0.041864
      px      :     0.000646
      py      :     0.036186
      dz2     :     0.000070  d :     0.000396
      dxz     :     0.000005
      dyz     :    -0.000015
      dx2y2   :     0.000334
      dxy     :     0.000002
  1 H s       :     0.998703  s :     0.998703
      pz      :     0.010676  p :     0.035703
      px      :     0.011547
      py      :     0.013480
      dz2     :     0.000411  d :     0.002110
      dxz     :     0.000383
      dyz     :     0.000321
      dx2y2   :     0.000464
      dxy     :     0.000532
  2 Bes       :     2.750726  s :     2.750726
      pz      :     0.183336  p :     1.047965
      px      :     0.027662
      py      :     0.836968
      dz2     :     0.028400  d :     0.091974
      dxz     :     0.004538
      dyz     :     0.027316
      dx2y2   :     0.018469
      dxy     :     0.013250
  3 H s       :     0.997768  s :     0.997768
      pz      :     0.015398  p :     0.070766
      px      :     0.000569
      py      :     0.054798
      dz2     :    -0.000092  d :     0.000249
      dxz     :     0.000002
      dyz     :     0.000171
      dx2y2   :     0.000167
      dxy     :     0.000000
  4 F s       :     3.943241  s :     3.943241
      pz      :     1.732134  p :     5.377707
      px      :     1.956736
      py      :     1.688837
      dz2     :     0.006352  d :     0.025162
      dxz     :     0.003637
      dyz     :     0.006598
      dx2y2   :     0.005123
      dxy     :     0.003451
      f0      :     0.000047  f :     0.000456
      f+1     :     0.000013
      f-1     :     0.000139
      f+2     :     0.000136
      f-2     :     0.000057
      f+3     :     0.000023
      f-3     :     0.000041
  5 C s       :     3.013772  s :     3.013772
      pz      :     0.790263  p :     2.551788
      px      :     0.899891
      py      :     0.861634
      dz2     :    -0.044649  d :     0.069300
      dxz     :     0.031124
      dyz     :     0.027911
      dx2y2   :     0.044630
      dxy     :     0.010284
      f0      :     0.001348  f :     0.009565
      f+1     :     0.000342
      f-1     :     0.002113
      f+2     :     0.002208
      f-2     :     0.001872
      f+3     :     0.000827
      f-3     :     0.000855
  6 H s       :     1.048717  s :     1.048717
      pz      :     0.006211  p :     0.018978
      px      :     0.000940
      py      :     0.011827
      dz2     :     0.000102  d :     0.000450
      dxz     :    -0.000000
      dyz     :     0.000041
      dx2y2   :     0.000304
      dxy     :     0.000004
  7 H s       :     0.994252  s :     0.994252
      pz      :     0.014778  p :     0.037718
      px      :     0.008824
      py      :     0.014115
      dz2     :     0.000481  d :     0.002106
      dxz     :     0.000315
      dyz     :     0.000401
      dx2y2   :     0.000464
      dxy     :     0.000444


                     *******************************
                     * LOEWDIN POPULATION ANALYSIS *
                     *******************************

----------------------
LOEWDIN ATOMIC CHARGES
----------------------
   0 H :    0.081729
   1 H :   -0.048563
   2 Be:    0.368160
   3 H :    0.073523
   4 F :   -0.210517
   5 C :   -0.107496
   6 H :   -0.107556
   7 H :   -0.049281

-------------------------------
LOEWDIN REDUCED ORBITAL CHARGES
-------------------------------
  0 H s       :     0.727205  s :     0.727205
      pz      :     0.062469  p :     0.184754
      px      :     0.004142
      py      :     0.118143
      dz2     :     0.001222  d :     0.006311
      dxz     :     0.000014
      dyz     :     0.000875
      dx2y2   :     0.004177
      dxy     :     0.000024
  1 H s       :     0.727332  s :     0.727332
      pz      :     0.087977  p :     0.292939
      px      :     0.126413
      py      :     0.078548
      dz2     :     0.004684  d :     0.028291
      dxz     :     0.008059
      dyz     :     0.003514
      dx2y2   :     0.006711
      dxy     :     0.005324
  2 Bes       :     2.451311  s :     2.451311
      pz      :     0.212747  p :     0.918405
      px      :     0.041819
      py      :     0.663838
      dz2     :     0.092486  d :     0.262125
      dxz     :     0.011905
      dyz     :     0.060635
      dx2y2   :     0.065332
      dxy     :     0.031767
  3 H s       :     0.764006  s :     0.764006
      pz      :     0.063241  p :     0.156446
      px      :     0.001109
      py      :     0.092096
      dz2     :     0.000726  d :     0.006025
      dxz     :     0.000013
      dyz     :     0.001615
      dx2y2   :     0.003667
      dxy     :     0.000004
  4 F s       :     3.633495  s :     3.633495
      pz      :     1.731946  p :     5.316178
      px      :     1.867582
      py      :     1.716649
      dz2     :     0.065798  d :     0.259801
      dxz     :     0.042937
      dyz     :     0.067051
      dx2y2   :     0.049307
      dxy     :     0.034707
      f0      :     0.000137  f :     0.001043
      f+1     :     0.000037
      f-1     :     0.000294
      f+2     :     0.000225
      f-2     :     0.000178
      f+3     :     0.000070
      f-3     :     0.000103
  5 C s       :     2.727854  s :     2.727854
      pz      :     0.817601  p :     2.675143
      px      :     0.955814
      py      :     0.901728
      dz2     :     0.122335  d :     0.638759
      dxz     :     0.142181
      dyz     :     0.168267
      dx2y2   :     0.155742
      dxy     :     0.050234
      f0      :     0.009821  f :     0.065740
      f+1     :     0.002992
      f-1     :     0.015061
      f+2     :     0.014759
      f-2     :     0.011174
      f+3     :     0.005238
      f-3     :     0.006696
  6 H s       :     1.020356  s :     1.020356
      pz      :     0.019330  p :     0.084580
      px      :     0.001965
      py      :     0.063285
      dz2     :     0.000606  d :     0.002620
      dxz     :     0.000001
      dyz     :     0.000241
      dx2y2   :     0.001717
      dxy     :     0.000056
  7 H s       :     0.727234  s :     0.727234
      pz      :     0.094168  p :     0.293700
      px      :     0.120494
      py      :     0.079037
      dz2     :     0.005415  d :     0.028348
      dxz     :     0.007946
      dyz     :     0.004338
      dx2y2   :     0.006140
      dxy     :     0.004509


                      *****************************
                      * MAYER POPULATION ANALYSIS *
                      *****************************

  NA   - Mulliken gross atomic population
  ZA   - Total nuclear charge
  QA   - Mulliken gross atomic charge
  VA   - Mayer's total valence
  BVA  - Mayer's bonded valence
  FA   - Mayer's free valence

  ATOM       NA         ZA         QA         VA         BVA        FA
  0 H      0.9108     1.0000     0.0892     1.0544     1.0544    -0.0000
  1 H      1.0365     1.0000    -0.0365     1.0340     1.0340     0.0000
  2 Be     3.8907     4.0000     0.1093     2.2495     2.2495     0.0000
  3 H      1.0688     1.0000    -0.0688     1.0413     1.0413    -0.0000
  4 F      9.3466     9.0000    -0.3466     0.8019     0.8019     0.0000
  5 C      5.6444     6.0000     0.3556     3.8268     3.8268     0.0000
  6 H      1.0681     1.0000    -0.0681     1.0427     1.0427     0.0000
  7 H      1.0341     1.0000    -0.0341     1.0471     1.0471     0.0000

  Mayer bond orders larger than 0.100000
B(  0-H ,  2-Be) :   0.1279 B(  0-H ,  3-H ) :   0.9373 B(  1-H ,  5-C ) :   1.0204 
B(  2-Be,  3-H ) :   0.1286 B(  2-Be,  5-C ) :   1.0617 B(  2-Be,  6-H ) :   0.8868 
B(  4-F ,  5-C ) :   0.7278 B(  5-C ,  7-H ) :   1.0225 

-------
TIMINGS
-------

Total SCF time: 0 days 0 hours 0 min 1 sec 

Total time                  ....       1.985 sec
Sum of individual times     ....       1.866 sec  ( 94.0%)

Fock matrix formation       ....       1.514 sec  ( 76.3%)
  XC integration            ....       0.300 sec  ( 19.8% of F)
    Basis function eval.    ....       0.059 sec  ( 19.6% of XC)
    Density eval.           ....       0.042 sec  ( 14.0% of XC)
    XC-Functional eval.     ....       0.013 sec  (  4.2% of XC)
    XC-Potential eval.      ....       0.076 sec  ( 25.2% of XC)
Diagonalization             ....       0.036 sec  (  1.8%)
Density matrix formation    ....       0.008 sec  (  0.4%)
Population analysis         ....       0.005 sec  (  0.3%)
Initial guess               ....       0.103 sec  (  5.2%)
Orbital Transformation      ....       0.000 sec  (  0.0%)
Orbital Orthonormalization  ....       0.000 sec  (  0.0%)
DIIS solution               ....       0.015 sec  (  0.7%)
SOSCF solution              ....       0.007 sec  (  0.4%)
Grid generation             ....       0.178 sec  (  9.0%)


           ************************************************************
           *        Program running with 24 parallel MPI-processes    *
           *              working on a common directory               *
           ************************************************************

------------------------------------------------------------------------------
                                ORCA  MP2 
------------------------------------------------------------------------------

Freezing NCore=4 chemical core electrons

-------------
RI-MP2 ENERGY
-------------
Dimension of the basis                    ...  184
Memory devoted to MP2                     ... 5000 MB   
Data format for buffers                   ... DOUBLE
Compression type for matrix containers    ... UNCOMPRESSED
Overall scaling of the MP2 energy         ...   2.700e-01
Calculating two index integrals           ... done (    0.002 sec)
Cholesky decomposition of V**-1           ... done (    0.022 sec)

-----------------
RI-TRANSFORMATION (AUX index driven)
-----------------

Dimension of the orbital-basis         ... 184
Dimension of the aux-basis             ... 437
Transformation of internal/external MOs...    2-  11 to   12- 183
Number Format for Storage              ... Double (8 Byte)
Integral mode                          ... Direct

First Phase: integral generation and transformation of MO indices
  Aux angular momentum 0               ... done (    0.003 sec)
  Aux angular momentum 1               ... done (    0.003 sec)
  Aux angular momentum 2               ... done (    0.004 sec)
  Aux angular momentum 3               ... done (    0.003 sec)
  Aux angular momentum 4               ... done (    0.004 sec)
Closing buffer VIA ( 0.01 GB; CompressionRatio= 1.00)
  Phase 1 completed in     0.102 sec
Second Phase: sorting and transformation of aux index

IA-Transformation
Memory available                       ... 4996 MB 
Max. # MO pairs treated in a batch     ... 1    
# of internal orbitals                 ... 10
# batches for internal orbitals        ... 1
Closing buffer IAV ( 0.00 GB; CompressionRatio= 1.00)
(ia|v) transformation done in     0.005 sec

  Phase 2 completed in     0.012 sec
RI-Integral transformation completed in     0.115 sec
Opening buffers                              ... done

Starting loop over batches of integrals:

Operator 0  - window                       ... (  2- 11)x( 12-183)
Operator 0  - Memory available             ...  5000 MB
Operator 0  - Memory needed per MO         ...   0.6 MB
Operator 0  - Number of orbitals per batch ... 1
Operator 0  - Number of batches            ... 1

OPERATOR  0   PASS   0:  MOs     2 ...    2 +    3 ...    3 +    4 ...    4 +    5 ...    5
                            +    6 ...    6 +    7 ...    7 +    8 ...    8 +    9 ...    9
                            +   10 ...   10 +   11 ...   11
  Reading integrals       ... ok
Time spent in pair loops =     0.002 sec
Deleting buffer (Ka|jb)[aa] ...done

-----------------------------------------------
 RI-MP2 CORRELATION ENERGY:     -0.173076369 Eh
-----------------------------------------------


-------
TIMINGS
-------

Total time                :    0.170 sec
Integral trafo            :    0.135 sec ( 79.4%)
I/O of integrals          :    0.001 sec (  0.3%)
K(i,j) Operators          :    0.001 sec (  0.3%)
T(i,j) pair energies      :    0.000 sec (  0.1%)
V-calculation             :    0.002 sec (  1.4%)
V**(-1/2)                 :    0.022 sec ( 12.9%)
Gamma(ia|P)               :    0.000 sec (  0.0%)
Gamma-Trafo               :    0.000 sec (  0.0%)
D(virtual)                :    0.000 sec (  0.0%)
D(internal)               :    0.000 sec (  0.0%)
W(virtual)                :    0.000 sec (  0.0%)
W(internal)               :    0.000 sec (  0.0%)
L(virtual)                :    0.000 sec (  0.0%)
L(internal)               :    0.000 sec (  0.0%)
G(D)                      :    0.000 sec (  0.0%)
G(Z)                      :    0.000 sec (  0.0%)
Z-Vector Solution         :    0.000 sec (  0.0%)
Z-Vector Solution         :    0.000 sec (  0.0%)
3-Index Derivative 
+ Separable RIJ part      :    0.000 sec (  0.0%)
2-Index Derivative 
+ Separable RIJ part      :    0.000 sec (  0.0%)
Separable Gradient (X)    :    0.000 sec (  0.0%)


---------------------------------------
MP2 TOTAL ENERGY:     -155.591652717 Eh
---------------------------------------


-------------------------------------------------------------------------------
                          DFT DISPERSION CORRECTION                            
                                                                               
                              DFTD3 V3.1  Rev 1                                
                          USING Becke-Johnson damping                          
-------------------------------------------------------------------------------
The B2PLYP functional is recognized
Active option DFTDOPT                   ...         4   

molecular C6(AA) [au] = 518.176448 


            DFT-D V3
 parameters
 s6 scaling factor         :     0.6400 
 a1 scaling factor         :     0.3065 
 s8 scaling factor         :     0.9147 
 a2 scaling factor         :     5.0570 
 ad hoc parameters k1-k3   :    16.0000     1.3333    -4.0000 

 Edisp/kcal,au: -1.713546727473  -0.002730710237 
 E6   /kcal   :  -0.985309240 
 E8   /kcal   :  -0.728237487 
 % E8         :  42.498840306 

-------------------------   ----------------
Dispersion correction           -0.002730710
-------------------------   ----------------


-------------------------   --------------------
FINAL SINGLE POINT ENERGY      -155.594383427616
-------------------------   --------------------


                            ***************************************
                            *     ORCA property calculations      *
                            ***************************************


  WARNING: The energy has been calculated at the MP2 level but the densities
           used in the property calculations are still SCF densities
           MP2 response densities have not been calculated 
           use %mp2 Density relaxed end
           or  %mp2 Density unrelaxed end

                                    ---------------------
                                    Active property flags
                                    ---------------------
   (+) Dipole Moment


------------------------------------------------------------------------------
                       ORCA ELECTRIC PROPERTIES CALCULATION
------------------------------------------------------------------------------

Dipole Moment Calculation                       ... on
Quadrupole Moment Calculation                   ... off
Polarizability Calculation                      ... off
GBWName                                         ... 070.gbw
Electron density file                           ... 070.scfp
The origin for moment calculation is the CENTER OF MASS  = (-0.053914, -1.247217 -0.240472)

-------------
DIPOLE MOMENT
-------------
                                X             Y             Z
Electronic contribution:     -0.19590      -3.52657      -0.76008
Nuclear contribution   :      0.26588       3.83479       0.81982
                        -----------------------------------------
Total Dipole Moment    :      0.06998       0.30822       0.05974
                        -----------------------------------------
Magnitude (a.u.)       :      0.32166
Magnitude (Debye)      :      0.81760



--------------------
Rotational spectrum 
--------------------
 
Rotational constants in cm-1:     0.879452     0.304630     0.236523 
Rotational constants in MHz : 26365.310047  9132.583609  7090.795310 

 Dipole components along the rotational axes: 
x,y,z [a.u.] :     0.308221     0.059740    -0.069975 
x,y,z [Debye]:     0.783436     0.151848    -0.177863 

 

Timings for individual modules:

Sum of individual times         ...        3.500 sec (=   0.058 min)
GTO integral calculation        ...        0.548 sec (=   0.009 min)  15.7 %
SCF iterations                  ...        2.339 sec (=   0.039 min)  66.8 %
MP2 module                      ...        0.613 sec (=   0.010 min)  17.5 %
                             ****ORCA TERMINATED NORMALLY****
TOTAL RUN TIME: 0 days 0 hours 0 minutes 3 seconds 989 msec
