
                                 *****************
                                 * O   R   C   A *
                                 *****************

           --- An Ab Initio, DFT and Semiempirical electronic structure package ---

                  #######################################################
                  #                        -***-                        #
                  #          Department of theory and spectroscopy      #
                  #               Directorship: Frank Neese             #
                  #        Max Planck Institute fuer Kohlenforschung    #
                  #                Kaiser Wilhelm Platz 1               #
                  #                 D-45470 Muelheim/Ruhr               #
                  #                      Germany                        #
                  #                                                     #
                  #                  All rights reserved                #
                  #                        -***-                        #
                  #######################################################


                         Program Version 4.2.0 -  RELEASE  -


 With contributions from (in alphabetic order):
   Daniel Aravena         : Magnetic Suceptibility
   Michael Atanasov       : Ab Initio Ligand Field Theory (pilot matlab implementation)
   Alexander A. Auer      : GIAO ZORA, VPT2
   Ute Becker             : Parallelization
   Giovanni Bistoni       : ED, misc. LED, open-shell LED, HFLED
   Martin Brehm           : Molecular dynamics
   Dmytro Bykov           : SCF Hessian
   Vijay G. Chilkuri      : MRCI spin determinant printing, contributions to CSF-ICE
   Dipayan Datta          : RHF DLPNO-CCSD density
   Achintya Kumar Dutta   : EOM-CC, STEOM-CC
   Dmitry Ganyushin       : Spin-Orbit,Spin-Spin,Magnetic field MRCI
   Miquel Garcia          : C-PCM Hessian, Gaussian charge scheme
   Yang Guo               : DLPNO-NEVPT2, CIM, IAO-localization
   Andreas Hansen         : Spin unrestricted coupled pair/coupled cluster methods
   Benjamin Helmich-Paris : CASSCF linear response (MC-RPA)
   Lee Huntington         : MR-EOM, pCC
   Robert Izsak           : Overlap fitted RIJCOSX, COSX-SCS-MP3, EOM
   Christian Kollmar      : KDIIS, OOCD, Brueckner-CCSD(T), CCSD density
   Simone Kossmann        : Meta GGA functionals, TD-DFT gradient, OOMP2, MP2 Hessian
   Martin Krupicka        : AUTO-CI
   Lucas Lang             : DCDCAS
   Dagmar Lenk            : GEPOL surface, SMD
   Dimitrios Liakos       : Extrapolation schemes; Compound Job, initial MDCI parallelization
   Dimitrios Manganas     : Further ROCIS development; embedding schemes
   Dimitrios Pantazis     : SARC Basis sets
   Taras Petrenko         : DFT Hessian,TD-DFT gradient, ASA, ECA, R-Raman, ABS, FL, XAS/XES, NRVS
   Peter Pinski           : DLPNO-MP2, DLPNO-MP2 Gradient
   Christoph Reimann      : Effective Core Potentials
   Marius Retegan         : Local ZFS, SOC
   Christoph Riplinger    : Optimizer, TS searches, QM/MM, DLPNO-CCSD(T), (RO)-DLPNO pert. Triples
   Tobias Risthaus        : Range-separated hybrids, TD-DFT gradient, RPA, STAB
   Michael Roemelt        : Original ROCIS implementation
   Masaaki Saitow         : Open-shell DLPNO-CCSD energy and density
   Barbara Sandhoefer     : DKH picture change effects
   Avijit Sen             : IP-ROCIS
   Kantharuban Sivalingam : CASSCF convergence, NEVPT2, FIC-MRCI
   Bernardo de Souza      : ESD, SOC TD-DFT
   Georgi Stoychev        : AutoAux, RI-MP2 NMR
   Willem Van den Heuvel  : Paramagnetic NMR
   Boris Wezisla          : Elementary symmetry handling
   Frank Wennmohs         : Technical directorship


 We gratefully acknowledge several colleagues who have allowed us to
 interface, adapt or use parts of their codes:
   Stefan Grimme, W. Hujo, H. Kruse,             : VdW corrections, initial TS optimization,
                  C. Bannwarth                     DFT functionals, gCP, sTDA/sTD-DF
   Ed Valeev, F. Pavosevic, A. Kumar             : LibInt (2-el integral package), F12 methods
   Garnet Chan, S. Sharma, J. Yang, R. Olivares  : DMRG
   Ulf Ekstrom                                   : XCFun DFT Library
   Mihaly Kallay                                 : mrcc  (arbitrary order and MRCC methods)
   Andreas Klamt, Michael Diedenhofen            : otool_cosmo (COSMO solvation model)
   Jiri Pittner, Ondrej Demel                    : Mk-CCSD
   Frank Weinhold                                : gennbo (NPA and NBO analysis)
   Christopher J. Cramer and Donald G. Truhlar   : smd solvation model
   Lars Goerigk                                  : TD-DFT with DH, B97 family of functionals
   V. Asgeirsson, H. Jonsson                     : NEB implementation
   FAccTs GmbH                                   : IRC, NEB, NEB-TS, Multilevel, MM, QM/MM, CI optimization
   S Lehtola, MJT Oliveira, MAL Marques          : LibXC Library


 Your calculation uses the libint2 library for the computation of 2-el integrals
 For citations please refer to: http://libint.valeyev.net

 Your ORCA version has been built with support for libXC version: 4.2.3
 For citations please refer to: https://tddft.org/programs/libxc/

 This ORCA versions uses:
   CBLAS   interface :  Fast vector & matrix operations
   LAPACKE interface :  Fast linear algebra routines
   SCALAPACK package :  Parallel linear algebra routines


Your calculation utilizes the atom-pairwise dispersion correction
with the Becke-Johnson damping scheme (D3BJ)
Cite in your paper:
S.Grimme, S.Ehrlich, L.Goerigk, J Comput Chem, (2011), 32, 1456–1465 
S.Grimme, J.Antony, S.Ehrlich and H.Krieg, J.Chem.Phys., 132, (2010), 154104 
   

----- Orbital basis set information -----
Your calculation utilizes the basis: def2-TZVPPD
   F. Weigend and R. Ahlrichs, Phys. Chem. Chem. Phys. 7, 3297 (2005).
   D. Rappoport and F. Furche, J. Chem. Phys. 133 134105 (2010).

----- AuxC basis set information -----
Your calculation utilizes the auxiliary basis: def2-TZVPPD/C
   A. Hellweg, C. Hattig, S. Hofener and W. Klopper, Theor. Chem. Acc. 117, 587 (2007).

----- AuxJK basis set information -----
Your calculation utilizes the auxiliary basis: def2/JK
   H-Ba, Hf-Rn: F. Weigend, J. Comput. Chem. 29, 167 (2008).

================================================================================
                                        WARNINGS
                       Please study these warnings very carefully!
================================================================================


WARNING: your system is open-shell and RHF/RKS was chosen
  ===> : WILL SWITCH to UHF/UKS


WARNING: No MP2 level density has been requested!
         To caclulate MP2 level properties use
         %mp2 Density relaxed end
         or
         %mp2 Density unrelaxed end
         Otherwise for double-hybrid DFT only the energy is correct!

WARNING: The frozen-core approximation is turned on by default for 
         the MP2 part of double-hybrid DFT.

INFO   : the flag for use of LIBINT has been found!

================================================================================
                                       INPUT FILE
================================================================================
NAME = 104.in
|  1> #
|  2> # 104 ri-B2PLYP-D3BJ/Def2-TZVPPD
|  3> #
|  4> ! rijk ri-b2plyp d3bj def2-tzvppd def2/jk def2-tzvppd/c grid4 nofinalgrid
|  5> 
|  6> *xyz 0 2
|  7> C          0.18239        0.81792       -0.17289
|  8> H         -2.32613        0.04031        1.01174
|  9> H          2.24798        0.73105       -0.01871
| 10> C          1.34005        0.10819       -0.12066
| 11> H          0.11379        1.91914       -0.21133
| 12> Si        -1.43329       -0.14152       -0.20061
| 13> H         -1.02937       -1.64029       -0.13873
| 14> Li         0.90457       -1.83481       -0.14881
| 15> *
| 16> 
| 17> %maxcore 5000
| 18> 
| 19> %pal
| 20> nprocs = 24
| 21> end
| 22> 
| 23> 
| 24>                          ****END OF INPUT****
================================================================================

                       ****************************
                       * Single Point Calculation *
                       ****************************

---------------------------------
CARTESIAN COORDINATES (ANGSTROEM)
---------------------------------
  C      0.182390    0.817920   -0.172890
  H     -2.326130    0.040310    1.011740
  H      2.247980    0.731050   -0.018710
  C      1.340050    0.108190   -0.120660
  H      0.113790    1.919140   -0.211330
  Si    -1.433290   -0.141520   -0.200610
  H     -1.029370   -1.640290   -0.138730
  Li     0.904570   -1.834810   -0.148810

----------------------------
CARTESIAN COORDINATES (A.U.)
----------------------------
  NO LB      ZA    FRAG     MASS         X           Y           Z
   0 C     6.0000    0    12.011    0.344667    1.545645   -0.326715
   1 H     1.0000    0     1.008   -4.395749    0.076175    1.911912
   2 H     1.0000    0     1.008    4.248067    1.381484   -0.035357
   3 C     6.0000    0    12.011    2.532328    0.204449   -0.228014
   4 H     1.0000    0     1.008    0.215032    3.626649   -0.399356
   5 Si   14.0000    0    28.086   -2.708526   -0.267434   -0.379098
   6 H     1.0000    0     1.008   -1.945227   -3.099699   -0.262162
   7 Li    3.0000    0     6.941    1.709390   -3.467288   -0.281210

--------------------------------
INTERNAL COORDINATES (ANGSTROEM)
--------------------------------
 C      0   0   0     0.000000000000     0.00000000     0.00000000
 H      1   0   0     2.881093219492     0.00000000     0.00000000
 H      1   2   0     2.073156992946   145.65110357     0.00000000
 C      3   1   2     1.105750996834    36.74033397    60.26063611
 H      1   2   4     1.104024040499   103.26355878   206.01422625
 Si     2   1   3     1.516581002453    36.00953826   245.85043630
 H      6   2   1     1.553477394010   103.70381678   115.06980497
 Li     7   6   2     1.943724147198   110.79629298   235.24261074

---------------------------
INTERNAL COORDINATES (A.U.)
---------------------------
 C      0   0   0     0.000000000000     0.00000000     0.00000000
 H      1   0   0     5.444477151136     0.00000000     0.00000000
 H      1   2   0     3.917698949291   145.65110357     0.00000000
 C      3   1   2     2.089566556327    36.74033397    60.26063611
 H      1   2   4     2.086303081809   103.26355878   206.01422625
 Si     2   1   3     2.865922754543    36.00953826   245.85043630
 H      6   2   1     2.935646829917   103.70381678   115.06980497
 Li     7   6   2     3.673106318094   110.79629298   235.24261074

---------------------
BASIS SET INFORMATION
---------------------
There are 4 groups of distinct atoms

 Group   1 Type C   : 12s6p3d1f contracted to 6s3p3d1f pattern {621111/411/111/1}
 Group   2 Type H   : 5s3p1d contracted to 3s3p1d pattern {311/111/1}
 Group   3 Type Si  : 15s9p4d1f contracted to 6s5p4d1f pattern {732111/51111/1111/1}
 Group   4 Type Li  : 11s4p1d contracted to 5s4p1d pattern {62111/1111/1}

Atom   0C    basis set group =>   1
Atom   1H    basis set group =>   2
Atom   2H    basis set group =>   2
Atom   3C    basis set group =>   1
Atom   4H    basis set group =>   2
Atom   5Si   basis set group =>   3
Atom   6H    basis set group =>   2
Atom   7Li   basis set group =>   4
---------------------------------
AUXILIARY/C BASIS SET INFORMATION
---------------------------------
There are 4 groups of distinct atoms

 Group   1 Type C   : 9s7p6d4f1g contracted to 9s7p5d4f1g pattern {111111111/1111111/21111/1111/1}
 Group   2 Type H   : 5s4p3d1f contracted to 5s4p3d1f pattern {11111/1111/111/1}
 Group   3 Type Si  : 12s9p8d6f2g contracted to 12s9p8d6f2g pattern {111111111111/111111111/11111111/111111/11}
 Group   4 Type Li  : 10s7p4d1f contracted to 10s7p4d1f pattern {1111111111/1111111/1111/1}

Atom   0C    basis set group =>   1
Atom   1H    basis set group =>   2
Atom   2H    basis set group =>   2
Atom   3C    basis set group =>   1
Atom   4H    basis set group =>   2
Atom   5Si   basis set group =>   3
Atom   6H    basis set group =>   2
Atom   7Li   basis set group =>   4
----------------------------------
AUXILIARY/JK BASIS SET INFORMATION
----------------------------------
There are 4 groups of distinct atoms

 Group   1 Type C   : 14s10p6d2f1g contracted to 10s8p5d1f1g pattern {5111111111/31111111/21111/2/1}
 Group   2 Type H   : 4s2p2d contracted to 2s2p2d pattern {31/11/11}
 Group   3 Type Si  : 16s12p10d4f1g contracted to 13s11p9d4f1g pattern {4111111111111/21111111111/211111111/1111/1}
 Group   4 Type Li  : 10s7p4d2f contracted to 7s5p3d2f pattern {4111111/31111/211/11}

Atom   0C    basis set group =>   1
Atom   1H    basis set group =>   2
Atom   2H    basis set group =>   2
Atom   3C    basis set group =>   1
Atom   4H    basis set group =>   2
Atom   5Si   basis set group =>   3
Atom   6H    basis set group =>   2
Atom   7Li   basis set group =>   4


           ************************************************************
           *        Program running with 24 parallel MPI-processes    *
           *              working on a common directory               *
           ************************************************************
------------------------------------------------------------------------------
                           ORCA GTO INTEGRAL CALCULATION
                           -- RI-GTO INTEGRALS CHOSEN --
------------------------------------------------------------------------------

                         BASIS SET STATISTICS AND STARTUP INFO

Gaussian basis set:
 # of primitive gaussian shells          ...  125
 # of primitive gaussian functions       ...  277
 # of contracted shells                  ...   80
 # of contracted basis functions         ...  212
 Highest angular momentum                ...    3
 Maximum contraction depth               ...    7
Auxiliary gaussian basis set:
 # of primitive gaussian shells          ...  164
 # of primitive gaussian functions       ...  478
 # of contracted shells                  ...  129
 # of contracted aux-basis functions     ...  401
 Highest angular momentum                ...    4
 Maximum contraction depth               ...    5
Ratio of auxiliary to basis functions    ...  1.89
Integral package used                  ... LIBINT
 One Electron integrals                  ... done
 Ordering auxiliary basis shells         ... done
 Integral threshhold             Thresh  ...  1.000e-10
 Primitive cut-off               TCut    ...  1.000e-11
 Pre-screening matrix                    ... done
 Shell pair data                         ... 
 Ordering of the shell pairs             ... done (   0.000 sec) 3134 of 3240 pairs
 Determination of significant pairs      ... done (   0.000 sec)
 Creation of shell pair data             ... done (   0.000 sec)
 Storage of shell pair data              ... done (   0.026 sec)
 Shell pair data done in (   0.027 sec)
 Computing two index integrals           ... done
 Cholesky decomposition of the V-matrix  ... done


Timings:
 Total evaluation time                   ...   0.179 sec (  0.003 min)
 One electron matrix time                ...   0.024 sec (  0.000 min) = 13.2%
 Schwartz matrix evaluation time         ...   0.101 sec (  0.002 min) = 56.1%
 Two index repulsion integral time       ...   0.005 sec (  0.000 min) =  2.5%
 Cholesky decomposition of V             ...   0.003 sec (  0.000 min) =  1.9%
 Three index repulsion integral time     ...   0.000 sec (  0.000 min) =  0.0%



           ************************************************************
           *        Program running with 24 parallel MPI-processes    *
           *              working on a common directory               *
           ************************************************************
-------------------------------------------------------------------------------
                                 ORCA SCF
-------------------------------------------------------------------------------

------------
SCF SETTINGS
------------
Hamiltonian:
 Density Functional     Method          .... DFT(GTOs)
 Exchange Functional    Exchange        .... B88
   X-Alpha parameter    XAlpha          ....  0.666667
   Becke's b parameter  XBeta           ....  0.004200
 Correlation Functional Correlation     .... LYP
 LDA part of GGA corr.  LDAOpt          .... VWN-3
 Gradients option       PostSCFGGA      .... off
 Hybrid DFT is turned on
   Fraction HF Exchange ScalHFX         ....  0.530000
   Scaling of DF-GGA-X  ScalDFX         ....  0.470000
   Scaling of DF-GGA-C  ScalDFC         ....  0.730000
   Scaling of DF-LDA-C  ScalLDAC        ....  0.730000
   Perturbative correction              ....  0.270000
   Density functional embedding theory  .... OFF
 RI-approximation to the Coulomb term is turned on
   Number of auxiliary basis functions  .... 401
   RI-JK (J+K treated both via RI)      .... on


General Settings:
 Integral files         IntName         .... 104
 Hartree-Fock type      HFTyp           .... UHF
 Total Charge           Charge          ....    0
 Multiplicity           Mult            ....    2
 Number of Electrons    NEL             ....   33
 Basis Dimension        Dim             ....  212
 Nuclear Repulsion      ENuc            ....    100.1175538757 Eh

Convergence Acceleration:
 DIIS                   CNVDIIS         .... on
   Start iteration      DIISMaxIt       ....    12
   Startup error        DIISStart       ....  0.200000
   # of expansion vecs  DIISMaxEq       ....     5
   Bias factor          DIISBfac        ....   1.050
   Max. coefficient     DIISMaxC        ....  10.000
 Newton-Raphson         CNVNR           .... off
 SOSCF                  CNVSOSCF        .... off
 Level Shifting         CNVShift        .... on
   Level shift para.    LevelShift      ....    0.2500
   Turn off err/grad.   ShiftErr        ....    0.0010
 Zerner damping         CNVZerner       .... off
 Static damping         CNVDamp         .... on
   Fraction old density DampFac         ....    0.7000
   Max. Damping (<1)    DampMax         ....    0.9800
   Min. Damping (>=0)   DampMin         ....    0.0000
   Turn off err/grad.   DampErr         ....    0.1000
 Fernandez-Rico         CNVRico         .... off

SCF Procedure:
 Maximum # iterations   MaxIter         ....   125
 SCF integral mode      SCFMode         .... Direct
   Integral package                     .... LIBINT
 Reset frequency        DirectResetFreq ....    20
 Integral Threshold     Thresh          ....  1.000e-10 Eh
 Primitive CutOff       TCut            ....  1.000e-11 Eh

Convergence Tolerance:
 Convergence Check Mode ConvCheckMode   .... Total+1el-Energy
 Convergence forced     ConvForced      .... 0
 Energy Change          TolE            ....  1.000e-06 Eh
 1-El. energy change                    ....  1.000e-03 Eh
 DIIS Error             TolErr          ....  1.000e-06


Diagonalization of the overlap matrix:
Smallest eigenvalue                        ... 8.995e-06
Time for diagonalization                   ...    0.010 sec
Threshold for overlap eigenvalues          ... 1.000e-08
Number of eigenvalues below threshold      ... 0
Time for construction of square roots      ...    0.006 sec
Total time needed                          ...    0.016 sec

-------------------
DFT GRID GENERATION
-------------------

General Integration Accuracy     IntAcc      ...  4.670
Radial Grid Type                 RadialGrid  ... Gauss-Chebyshev
Angular Grid (max. acc.)         AngularGrid ... Lebedev-302
Angular grid pruning method      GridPruning ... 3 (G Style)
Weight generation scheme         WeightScheme... Becke
Basis function cutoff            BFCut       ...    1.0000e-10
Integration weight cutoff        WCut        ...    1.0000e-14
Grids for H and He will be reduced by one unit

# of grid points (after initial pruning)     ...  38614 (   0.0 sec)
# of grid points (after weights+screening)   ...  36710 (   0.0 sec)
nearest neighbour list constructed           ...    0.0 sec
Grid point re-assignment to atoms done       ...    0.0 sec
Grid point division into batches done        ...    0.1 sec
Reduced shell lists constructed in    0.1 sec

Total number of grid points                  ...    36710
Total number of batches                      ...      577
Average number of points per batch           ...       63
Average number of grid points per atom       ...     4589
Average number of shells per batch           ...    65.00 (81.25%)
Average number of basis functions per batch  ...   179.77 (84.80%)
Average number of large shells per batch     ...    56.92 (87.57%)
Average number of large basis fcns per batch ...   159.00 (88.45%)
Average number of aux-shells per batch       ...    65.00 (50.39%)
Average number of aux functions per batch    ...   179.77 (44.83%)
Maximum spatial batch extension              ...   3.68,  3.55, 17.08 au
Average spatial batch extension              ...   0.08,  0.08,  0.11 au

Time for grid setup =    0.218 sec

------------------------------
INITIAL GUESS: MODEL POTENTIAL
------------------------------
Loading Hartree-Fock densities                     ... done
Calculating cut-offs                               ... done
Setting up the integral package                    ... done
Initializing the effective Hamiltonian             ... done
Starting the Coulomb interaction                   ... done (   0.0 sec)
Reading the grid                                   ... done
Mapping shells                                     ... done
Starting the XC term evaluation                    ... done (   0.0 sec)
  promolecular density results
     # of electrons  =     32.998045738
     EX              =    -33.483868746
     EC              =     -0.359216217
     EX+EC           =    -33.843084963
Transforming the Hamiltonian                       ... done (   0.0 sec)
Diagonalizing the Hamiltonian                      ... done (   0.0 sec)
Back transforming the eigenvectors                 ... done (   0.0 sec)
Now organizing SCF variables                       ... done
                      ------------------
                      INITIAL GUESS DONE (   0.3 sec)
                      ------------------
--------------
SCF ITERATIONS
--------------
ITER       Energy         Delta-E        Max-DP      RMS-DP      [F,P]     Damp
  0   -374.9712282524   0.000000000000 0.03705276  0.00065484  0.2439690 0.7000
  1   -374.9686898718   0.002538380562 0.03808199  0.00069440  0.1905062 0.7000
                               ***Turning on DIIS***
  2   -375.0156163551  -0.046926483327 0.07300239  0.00157582  0.0813144 0.0000
  3   -375.1128738307  -0.097257475558 0.00911939  0.00016450  0.1817327 0.7000
  4   -375.1595351656  -0.046661334963 0.01026119  0.00018919  0.1680716 0.7000
  5   -375.1843547676  -0.024819601933 0.01032663  0.00018271  0.1381219 0.7000
  6   -375.1999466523  -0.015591884730 0.00956354  0.00016654  0.1090378 0.7000
  7   -375.2096849616  -0.009738309312 0.03298272  0.00060247  0.0835508 0.0000
  8   -375.2113159630  -0.001631001356 0.00604686  0.00007525  0.0120575 0.0000
  9   -375.2116855544  -0.000369591466 0.00174444  0.00002715  0.0038348 0.0000
 10   -375.2117522673  -0.000066712862 0.00134278  0.00001902  0.0016842 0.0000
 11   -375.2117723875  -0.000020120219 0.00216606  0.00002386  0.0005555 0.0000
 12   -375.2117849078  -0.000012520314 0.00063875  0.00000979  0.0003313 0.0000
 13   -375.2117880359  -0.000003128044 0.00031322  0.00000670  0.0001626 0.0000
 14   -375.2117893347  -0.000001298864 0.00015278  0.00000309  0.0000498 0.0000
                 **** Energy Check signals convergence ****

               *****************************************************
               *                     SUCCESS                       *
               *           SCF CONVERGED AFTER  15 CYCLES          *
               *****************************************************


----------------
TOTAL SCF ENERGY
----------------

Total Energy       :         -375.21178969 Eh          -10210.03187 eV

Components:
Nuclear Repulsion  :          100.11755388 Eh            2724.33714 eV
Electronic Energy  :         -475.32934357 Eh          -12934.36901 eV
One Electron Energy:         -715.32161906 Eh          -19464.89083 eV
Two Electron Energy:          239.99227550 Eh            6530.52182 eV

Virial components:
Potential Energy   :         -749.53982929 Eh          -20396.01567 eV
Kinetic Energy     :          374.32803960 Eh           10185.98380 eV
Virial Ratio       :            2.00236090


DFT components:
N(Alpha)           :       17.000003157129 electrons
N(Beta)            :       16.000012897772 electrons
N(Total)           :       33.000016054901 electrons
E(X)               :      -15.946942310955 Eh       
E(C)               :       -0.825538195679 Eh       
E(XC)              :      -16.772480506634 Eh       
DFET-embed. en.    :        0.000000000000 Eh       

---------------
SCF CONVERGENCE
---------------

  Last Energy change         ...   -3.5465e-07  Tolerance :   1.0000e-06
  Last MAX-Density change    ...    6.5552e-05  Tolerance :   1.0000e-05
  Last RMS-Density change    ...    1.6111e-06  Tolerance :   1.0000e-06
  Last DIIS Error            ...    2.0998e-05  Tolerance :   1.0000e-06

             **** THE GBW FILE WAS UPDATED (104.gbw) ****
             **** DENSITY FILE WAS UPDATED (104.scfp) ****
             **** ENERGY FILE WAS UPDATED (104.en.tmp) ****
----------------------
UHF SPIN CONTAMINATION
----------------------

Warning: in a DFT calculation there is little theoretical justification to 
         calculate <S**2> as in Hartree-Fock theory. We will do it anyways
         but you should keep in mind that the values have only limited relevance

Expectation value of <S**2>     :     0.763187
Ideal value S*(S+1) for S=0.5   :     0.750000
Deviation                       :     0.013187

             **** THE GBW FILE WAS UPDATED (104.gbw) ****
             **** DENSITY FILE WAS UPDATED (104.scfp) ****
----------------
ORBITAL ENERGIES
----------------
                 SPIN UP ORBITALS
  NO   OCC          E(Eh)            E(eV) 
   0   1.0000     -67.223181     -1829.2357 
   1   1.0000     -10.584496      -288.0188 
   2   1.0000     -10.563013      -287.4342 
   3   1.0000      -5.621462      -152.9678 
   4   1.0000      -3.879788      -105.5744 
   5   1.0000      -3.874328      -105.4258 
   6   1.0000      -3.872145      -105.3664 
   7   1.0000      -2.178582       -59.2822 
   8   1.0000      -0.822901       -22.3923 
   9   1.0000      -0.621337       -16.9075 
  10   1.0000      -0.552225       -15.0268 
  11   1.0000      -0.473127       -12.8744 
  12   1.0000      -0.401491       -10.9251 
  13   1.0000      -0.371030       -10.0962 
  14   1.0000      -0.306594        -8.3428 
  15   1.0000      -0.260282        -7.0826 
  16   1.0000      -0.226825        -6.1722 
  17   0.0000      -0.018221        -0.4958 
  18   0.0000       0.015521         0.4223 
  19   0.0000       0.023005         0.6260 
  20   0.0000       0.035869         0.9760 
  21   0.0000       0.055208         1.5023 
  22   0.0000       0.064225         1.7477 
  23   0.0000       0.067379         1.8335 
  24   0.0000       0.073017         1.9869 
  25   0.0000       0.081058         2.2057 
  26   0.0000       0.098166         2.6712 
  27   0.0000       0.103040         2.8039 
  28   0.0000       0.122670         3.3380 
  29   0.0000       0.128360         3.4929 
  30   0.0000       0.132733         3.6118 
  31   0.0000       0.140115         3.8127 
  32   0.0000       0.144549         3.9334 
  33   0.0000       0.167735         4.5643 
  34   0.0000       0.176965         4.8155 
  35   0.0000       0.188666         5.1339 
  36   0.0000       0.203209         5.5296 
  37   0.0000       0.209156         5.6914 
  38   0.0000       0.218613         5.9488 
  39   0.0000       0.225072         6.1245 
  40   0.0000       0.230788         6.2801 
  41   0.0000       0.247658         6.7391 
  42   0.0000       0.260147         7.0789 
  43   0.0000       0.270619         7.3639 
  44   0.0000       0.278022         7.5654 
  45   0.0000       0.296129         8.0581 
  46   0.0000       0.300183         8.1684 
  47   0.0000       0.309274         8.4158 
  48   0.0000       0.320219         8.7136 
  49   0.0000       0.323756         8.8098 
  50   0.0000       0.339444         9.2367 
  51   0.0000       0.354175         9.6376 
  52   0.0000       0.355786         9.6814 
  53   0.0000       0.359531         9.7833 
  54   0.0000       0.371326        10.1043 
  55   0.0000       0.378408        10.2970 
  56   0.0000       0.387762        10.5515 
  57   0.0000       0.395486        10.7617 
  58   0.0000       0.407216        11.0809 
  59   0.0000       0.419818        11.4238 
  60   0.0000       0.442317        12.0361 
  61   0.0000       0.453136        12.3305 
  62   0.0000       0.458987        12.4897 
  63   0.0000       0.477699        12.9989 
  64   0.0000       0.483958        13.1692 
  65   0.0000       0.499613        13.5952 
  66   0.0000       0.511055        13.9065 
  67   0.0000       0.523519        14.2457 
  68   0.0000       0.538815        14.6619 
  69   0.0000       0.548220        14.9178 
  70   0.0000       0.557105        15.1596 
  71   0.0000       0.566375        15.4119 
  72   0.0000       0.582418        15.8484 
  73   0.0000       0.596489        16.2313 
  74   0.0000       0.598505        16.2861 
  75   0.0000       0.627521        17.0757 
  76   0.0000       0.636642        17.3239 
  77   0.0000       0.658053        17.9065 
  78   0.0000       0.684878        18.6365 
  79   0.0000       0.688117        18.7246 
  80   0.0000       0.702967        19.1287 
  81   0.0000       0.718912        19.5626 
  82   0.0000       0.724933        19.7264 
  83   0.0000       0.760114        20.6837 
  84   0.0000       0.777165        21.1477 
  85   0.0000       0.804289        21.8858 
  86   0.0000       0.816408        22.2156 
  87   0.0000       0.841200        22.8902 
  88   0.0000       0.857267        23.3274 
  89   0.0000       0.875460        23.8225 
  90   0.0000       0.886949        24.1351 
  91   0.0000       0.924015        25.1437 
  92   0.0000       0.943602        25.6767 
  93   0.0000       0.976933        26.5837 
  94   0.0000       0.990165        26.9438 
  95   0.0000       1.045692        28.4547 
  96   0.0000       1.058712        28.8090 
  97   0.0000       1.074952        29.2509 
  98   0.0000       1.086148        29.5556 
  99   0.0000       1.111404        30.2428 
 100   0.0000       1.140746        31.0413 
 101   0.0000       1.162772        31.6406 
 102   0.0000       1.186709        32.2920 
 103   0.0000       1.194961        32.5165 
 104   0.0000       1.215039        33.0629 
 105   0.0000       1.236682        33.6518 
 106   0.0000       1.270433        34.5702 
 107   0.0000       1.297826        35.3156 
 108   0.0000       1.342705        36.5369 
 109   0.0000       1.391758        37.8717 
 110   0.0000       1.398953        38.0675 
 111   0.0000       1.413589        38.4657 
 112   0.0000       1.449886        39.4534 
 113   0.0000       1.466284        39.8996 
 114   0.0000       1.495241        40.6876 
 115   0.0000       1.519205        41.3397 
 116   0.0000       1.532915        41.7127 
 117   0.0000       1.561623        42.4939 
 118   0.0000       1.581545        43.0360 
 119   0.0000       1.615281        43.9540 
 120   0.0000       1.623621        44.1810 
 121   0.0000       1.643609        44.7249 
 122   0.0000       1.704770        46.3891 
 123   0.0000       1.764707        48.0201 
 124   0.0000       1.806533        49.1583 
 125   0.0000       1.818051        49.4717 
 126   0.0000       1.863796        50.7165 
 127   0.0000       1.879259        51.1372 
 128   0.0000       1.946231        52.9596 
 129   0.0000       1.973918        53.7130 
 130   0.0000       1.998401        54.3792 
 131   0.0000       2.004702        54.5507 
 132   0.0000       2.133193        58.0471 
 133   0.0000       2.222103        60.4665 
 134   0.0000       2.279451        62.0270 
 135   0.0000       2.399786        65.3015 
 136   0.0000       2.452444        66.7344 
 137   0.0000       2.759202        75.0817 
 138   0.0000       2.804316        76.3093 
 139   0.0000       2.862764        77.8998 
 140   0.0000       2.915599        79.3375 
 141   0.0000       2.938056        79.9486 
 142   0.0000       2.963604        80.6438 
 143   0.0000       2.995572        81.5137 
 144   0.0000       3.063510        83.3623 
 145   0.0000       3.079199        83.7893 
 146   0.0000       3.123113        84.9842 
 147   0.0000       3.123758        85.0018 
 148   0.0000       3.209647        87.3389 
 149   0.0000       3.255047        88.5743 
 150   0.0000       3.294519        89.6484 
 151   0.0000       3.360839        91.4531 
 152   0.0000       3.380138        91.9782 
 153   0.0000       3.412701        92.8643 
 154   0.0000       3.436794        93.5199 
 155   0.0000       3.452339        93.9429 
 156   0.0000       3.458068        94.0988 
 157   0.0000       3.477800        94.6358 
 158   0.0000       3.525924        95.9453 
 159   0.0000       3.539902        96.3256 
 160   0.0000       3.576171        97.3126 
 161   0.0000       3.595996        97.8520 
 162   0.0000       3.659453        99.5788 
 163   0.0000       3.669191        99.8438 
 164   0.0000       3.707553       100.8876 
 165   0.0000       3.719785       101.2205 
 166   0.0000       3.730504       101.5122 
 167   0.0000       3.809983       103.6749 
 168   0.0000       3.829600       104.2087 
 169   0.0000       3.861305       105.0714 
 170   0.0000       3.883685       105.6804 
 171   0.0000       3.935428       107.0884 
 172   0.0000       3.943096       107.2971 
 173   0.0000       4.010257       109.1246 
 174   0.0000       4.080239       111.0290 
 175   0.0000       4.100717       111.5862 
 176   0.0000       4.123596       112.2087 
 177   0.0000       4.170752       113.4919 
 178   0.0000       4.209773       114.5538 
 179   0.0000       4.235423       115.2517 
 180   0.0000       4.257924       115.8640 
 181   0.0000       4.275863       116.3522 
 182   0.0000       4.364227       118.7566 
 183   0.0000       4.492820       122.2558 
 184   0.0000       4.556091       123.9775 
 185   0.0000       4.569075       124.3308 
 186   0.0000       4.653431       126.6263 
 187   0.0000       4.708105       128.1140 
 188   0.0000       4.791646       130.3873 
 189   0.0000       4.815527       131.0372 
 190   0.0000       4.843252       131.7916 
 191   0.0000       4.859388       132.2307 
 192   0.0000       4.996523       135.9623 
 193   0.0000       5.050638       137.4348 
 194   0.0000       5.083650       138.3332 
 195   0.0000       5.132718       139.6684 
 196   0.0000       5.250404       142.8708 
 197   0.0000       5.404155       147.0545 
 198   0.0000       5.464468       148.6957 
 199   0.0000       5.513146       150.0203 
 200   0.0000       5.613827       152.7600 
 201   0.0000       5.848943       159.1578 
 202   0.0000       6.144711       167.2061 
 203   0.0000       6.326484       172.1524 
 204   0.0000       6.387409       173.8102 
 205   0.0000       6.560253       178.5136 
 206   0.0000       6.973884       189.7690 
 207   0.0000       7.063649       192.2117 
 208   0.0000      11.993394       326.3568 
 209   0.0000      15.022623       408.7863 
 210   0.0000      23.029052       626.6524 
 211   0.0000      23.523655       640.1112 

                 SPIN DOWN ORBITALS
  NO   OCC          E(Eh)            E(eV) 
   0   1.0000     -67.219003     -1829.1221 
   1   1.0000     -10.583961      -288.0042 
   2   1.0000     -10.560151      -287.3563 
   3   1.0000      -5.616306      -152.8274 
   4   1.0000      -3.871797      -105.3570 
   5   1.0000      -3.869809      -105.3028 
   6   1.0000      -3.865500      -105.1856 
   7   1.0000      -2.178749       -59.2868 
   8   1.0000      -0.816063       -22.2062 
   9   1.0000      -0.605535       -16.4775 
  10   1.0000      -0.540659       -14.7121 
  11   1.0000      -0.466178       -12.6854 
  12   1.0000      -0.393354       -10.7037 
  13   1.0000      -0.362757        -9.8711 
  14   1.0000      -0.283976        -7.7274 
  15   1.0000      -0.248417        -6.7598 
  16   0.0000      -0.035670        -0.9706 
  17   0.0000      -0.017324        -0.4714 
  18   0.0000       0.015947         0.4339 
  19   0.0000       0.023607         0.6424 
  20   0.0000       0.037157         1.0111 
  21   0.0000       0.061874         1.6837 
  22   0.0000       0.068602         1.8668 
  23   0.0000       0.073232         1.9927 
  24   0.0000       0.075108         2.0438 
  25   0.0000       0.090786         2.4704 
  26   0.0000       0.101311         2.7568 
  27   0.0000       0.105737         2.8772 
  28   0.0000       0.125327         3.4103 
  29   0.0000       0.132141         3.5957 
  30   0.0000       0.136750         3.7212 
  31   0.0000       0.148219         4.0332 
  32   0.0000       0.149004         4.0546 
  33   0.0000       0.172014         4.6807 
  34   0.0000       0.179374         4.8810 
  35   0.0000       0.194117         5.2822 
  36   0.0000       0.206083         5.6078 
  37   0.0000       0.214727         5.8430 
  38   0.0000       0.220969         6.0129 
  39   0.0000       0.226522         6.1640 
  40   0.0000       0.235263         6.4018 
  41   0.0000       0.250288         6.8107 
  42   0.0000       0.263145         7.1605 
  43   0.0000       0.274362         7.4658 
  44   0.0000       0.282983         7.7004 
  45   0.0000       0.299063         8.1379 
  46   0.0000       0.305592         8.3156 
  47   0.0000       0.316404         8.6098 
  48   0.0000       0.322164         8.7665 
  49   0.0000       0.328404         8.9363 
  50   0.0000       0.342476         9.3192 
  51   0.0000       0.356756         9.7078 
  52   0.0000       0.358699         9.7607 
  53   0.0000       0.361216         9.8292 
  54   0.0000       0.374647        10.1947 
  55   0.0000       0.380212        10.3461 
  56   0.0000       0.392058        10.6684 
  57   0.0000       0.398774        10.8512 
  58   0.0000       0.410084        11.1590 
  59   0.0000       0.421391        11.4666 
  60   0.0000       0.445452        12.1214 
  61   0.0000       0.457204        12.4411 
  62   0.0000       0.460608        12.5338 
  63   0.0000       0.483434        13.1549 
  64   0.0000       0.489711        13.3257 
  65   0.0000       0.502287        13.6679 
  66   0.0000       0.520799        14.1717 
  67   0.0000       0.528887        14.3917 
  68   0.0000       0.543700        14.7948 
  69   0.0000       0.550939        14.9918 
  70   0.0000       0.562541        15.3075 
  71   0.0000       0.571407        15.5488 
  72   0.0000       0.587154        15.9773 
  73   0.0000       0.602759        16.4019 
  74   0.0000       0.607679        16.5358 
  75   0.0000       0.628800        17.1105 
  76   0.0000       0.641424        17.4540 
  77   0.0000       0.660430        17.9712 
  78   0.0000       0.690025        18.7765 
  79   0.0000       0.693504        18.8712 
  80   0.0000       0.708108        19.2686 
  81   0.0000       0.725744        19.7485 
  82   0.0000       0.727088        19.7851 
  83   0.0000       0.763213        20.7681 
  84   0.0000       0.779294        21.2057 
  85   0.0000       0.805107        21.9081 
  86   0.0000       0.818268        22.2662 
  87   0.0000       0.843074        22.9412 
  88   0.0000       0.861627        23.4461 
  89   0.0000       0.877645        23.8819 
  90   0.0000       0.890991        24.2451 
  91   0.0000       0.926510        25.2116 
  92   0.0000       0.950298        25.8589 
  93   0.0000       0.984758        26.7966 
  94   0.0000       0.994455        27.0605 
  95   0.0000       1.050145        28.5759 
  96   0.0000       1.067186        29.0396 
  97   0.0000       1.078459        29.3464 
  98   0.0000       1.093653        29.7598 
  99   0.0000       1.120681        30.4953 
 100   0.0000       1.145892        31.1813 
 101   0.0000       1.171629        31.8816 
 102   0.0000       1.197058        32.5736 
 103   0.0000       1.204211        32.7683 
 104   0.0000       1.222761        33.2730 
 105   0.0000       1.241946        33.7951 
 106   0.0000       1.278941        34.8018 
 107   0.0000       1.307809        35.5873 
 108   0.0000       1.348258        36.6880 
 109   0.0000       1.396252        37.9940 
 110   0.0000       1.410854        38.3913 
 111   0.0000       1.422122        38.6979 
 112   0.0000       1.453633        39.5554 
 113   0.0000       1.477079        40.1934 
 114   0.0000       1.499757        40.8105 
 115   0.0000       1.527508        41.5656 
 116   0.0000       1.539927        41.9035 
 117   0.0000       1.570558        42.7371 
 118   0.0000       1.596927        43.4546 
 119   0.0000       1.620778        44.1036 
 120   0.0000       1.629545        44.3422 
 121   0.0000       1.646378        44.8002 
 122   0.0000       1.714887        46.6644 
 123   0.0000       1.770212        48.1699 
 124   0.0000       1.813818        49.3565 
 125   0.0000       1.822357        49.5889 
 126   0.0000       1.867843        50.8266 
 127   0.0000       1.884956        51.2923 
 128   0.0000       1.949262        53.0421 
 129   0.0000       1.978695        53.8430 
 130   0.0000       2.002547        54.4921 
 131   0.0000       2.007260        54.6203 
 132   0.0000       2.135358        58.1060 
 133   0.0000       2.224410        60.5293 
 134   0.0000       2.282643        62.1139 
 135   0.0000       2.403044        65.3901 
 136   0.0000       2.455023        66.8046 
 137   0.0000       2.763408        75.1962 
 138   0.0000       2.808534        76.4241 
 139   0.0000       2.865535        77.9752 
 140   0.0000       2.917700        79.3947 
 141   0.0000       2.942177        80.0607 
 142   0.0000       2.968581        80.7792 
 143   0.0000       2.998507        81.5935 
 144   0.0000       3.067292        83.4653 
 145   0.0000       3.082231        83.8718 
 146   0.0000       3.125472        85.0484 
 147   0.0000       3.127160        85.0944 
 148   0.0000       3.210817        87.3708 
 149   0.0000       3.259705        88.7011 
 150   0.0000       3.298522        89.7574 
 151   0.0000       3.364359        91.5489 
 152   0.0000       3.382770        92.0498 
 153   0.0000       3.415184        92.9319 
 154   0.0000       3.439848        93.6030 
 155   0.0000       3.454644        94.0057 
 156   0.0000       3.461462        94.1912 
 157   0.0000       3.480207        94.7012 
 158   0.0000       3.527872        95.9983 
 159   0.0000       3.543825        96.4324 
 160   0.0000       3.578869        97.3860 
 161   0.0000       3.599248        97.9405 
 162   0.0000       3.662578        99.6638 
 163   0.0000       3.673485        99.9606 
 164   0.0000       3.710603       100.9706 
 165   0.0000       3.722731       101.3007 
 166   0.0000       3.734202       101.6128 
 167   0.0000       3.814269       103.7915 
 168   0.0000       3.831658       104.2647 
 169   0.0000       3.863907       105.1423 
 170   0.0000       3.886116       105.7466 
 171   0.0000       3.938432       107.1702 
 172   0.0000       3.944862       107.3452 
 173   0.0000       4.012392       109.1827 
 174   0.0000       4.083840       111.1269 
 175   0.0000       4.102670       111.6393 
 176   0.0000       4.125488       112.2602 
 177   0.0000       4.175858       113.6309 
 178   0.0000       4.214516       114.6828 
 179   0.0000       4.236808       115.2894 
 180   0.0000       4.259280       115.9009 
 181   0.0000       4.278491       116.4237 
 182   0.0000       4.365593       118.7938 
 183   0.0000       4.494647       122.3056 
 184   0.0000       4.559411       124.0679 
 185   0.0000       4.572337       124.4196 
 186   0.0000       4.658589       126.7667 
 187   0.0000       4.710234       128.1720 
 188   0.0000       4.796094       130.5084 
 189   0.0000       4.823184       131.2455 
 190   0.0000       4.846461       131.8789 
 191   0.0000       4.861914       132.2994 
 192   0.0000       4.999600       136.0460 
 193   0.0000       5.052256       137.4789 
 194   0.0000       5.086029       138.3979 
 195   0.0000       5.134205       139.7088 
 196   0.0000       5.252650       142.9319 
 197   0.0000       5.407574       147.1476 
 198   0.0000       5.466956       148.7634 
 199   0.0000       5.515456       150.0832 
 200   0.0000       5.615232       152.7982 
 201   0.0000       5.850569       159.2021 
 202   0.0000       6.144647       167.2043 
 203   0.0000       6.326524       172.1535 
 204   0.0000       6.387445       173.8112 
 205   0.0000       6.578082       178.9987 
 206   0.0000       6.976952       189.8525 
 207   0.0000       7.066683       192.2942 
 208   0.0000      11.999127       326.5128 
 209   0.0000      15.022408       408.7805 
 210   0.0000      23.030983       626.7049 
 211   0.0000      23.524834       640.1433 

                    ********************************
                    * MULLIKEN POPULATION ANALYSIS *
                    ********************************

--------------------------------------------
MULLIKEN ATOMIC CHARGES AND SPIN POPULATIONS
--------------------------------------------
   0 C :    0.012012   -0.024691
   1 H :   -0.117086    0.052180
   2 H :   -0.053418   -0.001515
   3 C :   -0.682311    0.175450
   4 H :    0.075135    0.006414
   5 Si:    0.311478    0.772801
   6 H :   -0.317920    0.023383
   7 Li:    0.772111   -0.004022
Sum of atomic charges         :    0.0000000
Sum of atomic spin populations:    1.0000000

-----------------------------------------------------
MULLIKEN REDUCED ORBITAL CHARGES AND SPIN POPULATIONS
-----------------------------------------------------
CHARGE
  0 C s       :     3.176221  s :     3.176221
      pz      :     1.003414  p :     2.741487
      px      :     0.933643
      py      :     0.804430
      dz2     :    -0.002385  d :     0.065354
      dxz     :     0.014301
      dyz     :    -0.002763
      dx2y2   :     0.004507
      dxy     :     0.051694
      f0      :     0.000956  f :     0.004925
      f+1     :     0.000423
      f-1     :     0.000571
      f+2     :     0.000163
      f-2     :     0.000347
      f+3     :     0.001483
      f-3     :     0.000982
  1 H s       :     1.093533  s :     1.093533
      pz      :     0.010987  p :     0.022820
      px      :     0.007553
      py      :     0.004280
      dz2     :     0.000216  d :     0.000733
      dxz     :     0.000269
      dyz     :     0.000082
      dx2y2   :     0.000085
      dxy     :     0.000081
  2 H s       :     0.904951  s :     0.904951
      pz      :     0.043792  p :     0.146374
      px      :     0.029007
      py      :     0.073575
      dz2     :     0.000096  d :     0.002093
      dxz     :     0.000410
      dyz     :     0.000100
      dx2y2   :     0.000939
      dxy     :     0.000548
  3 C s       :     3.374083  s :     3.374083
      pz      :     0.720049  p :     3.213922
      px      :     0.987250
      py      :     1.506623
      dz2     :     0.006685  d :     0.090070
      dxz     :     0.035308
      dyz     :    -0.004136
      dx2y2   :     0.017706
      dxy     :     0.034507
      f0      :     0.000740  f :     0.004236
      f+1     :     0.000341
      f-1     :     0.000225
      f+2     :     0.000184
      f-2     :     0.000539
      f+3     :     0.001212
      f-3     :     0.000995
  4 H s       :     0.911551  s :     0.911551
      pz      :     0.000989  p :     0.011407
      px      :     0.000268
      py      :     0.010151
      dz2     :     0.000103  d :     0.001907
      dxz     :     0.000013
      dyz     :     0.000565
      dx2y2   :     0.000341
      dxy     :     0.000885
  5 Sis       :     5.367638  s :     5.367638
      pz      :     2.788194  p :     8.011352
      px      :     2.690604
      py      :     2.532554
      dz2     :     0.035891  d :     0.284834
      dxz     :     0.118582
      dyz     :     0.010736
      dx2y2   :     0.074495
      dxy     :     0.045130
      f0      :     0.002622  f :     0.024699
      f+1     :     0.004123
      f-1     :     0.002744
      f+2     :     0.002185
      f-2     :     0.002277
      f+3     :     0.005972
      f-3     :     0.004777
  6 H s       :     1.285959  s :     1.285959
      pz      :     0.013351  p :     0.031272
      px      :     0.007920
      py      :     0.010000
      dz2     :     0.000161  d :     0.000689
      dxz     :     0.000020
      dyz     :     0.000141
      dx2y2   :     0.000150
      dxy     :     0.000217
  7 Lis       :     2.074430  s :     2.074430
      pz      :     0.018721  p :     0.129041
      px      :     0.051066
      py      :     0.059254
      dz2     :     0.004528  d :     0.024417
      dxz     :     0.001293
      dyz     :     0.003628
      dx2y2   :     0.010948
      dxy     :     0.004020

SPIN
  0 C s       :     0.004638  s :     0.004638
      pz      :    -0.051599  p :    -0.037408
      px      :     0.019703
      py      :    -0.005513
      dz2     :     0.001131  d :     0.007664
      dxz     :     0.008531
      dyz     :     0.001396
      dx2y2   :    -0.004363
      dxy     :     0.000969
      f0      :     0.000091  f :     0.000415
      f+1     :     0.000026
      f-1     :     0.000031
      f+2     :     0.000025
      f-2     :     0.000154
      f+3     :     0.000071
      f-3     :     0.000017
  1 H s       :     0.043369  s :     0.043369
      pz      :     0.005073  p :     0.008678
      px      :     0.004148
      py      :    -0.000543
      dz2     :     0.000074  d :     0.000133
      dxz     :     0.000019
      dyz     :     0.000003
      dx2y2   :     0.000027
      dxy     :     0.000009
  2 H s       :    -0.003470  s :    -0.003470
      pz      :     0.003717  p :     0.001836
      px      :    -0.000789
      py      :    -0.001092
      dz2     :    -0.000003  d :     0.000118
      dxz     :     0.000084
      dyz     :     0.000028
      dx2y2   :     0.000000
      dxy     :     0.000010
  3 C s       :     0.014045  s :     0.014045
      pz      :     0.124902  p :     0.156128
      px      :     0.014188
      py      :     0.017038
      dz2     :    -0.000186  d :     0.005422
      dxz     :    -0.003711
      dyz     :     0.000399
      dx2y2   :     0.006994
      dxy     :     0.001926
      f0      :    -0.000091  f :    -0.000146
      f+1     :    -0.000077
      f-1     :    -0.000040
      f+2     :    -0.000008
      f-2     :    -0.000006
      f+3     :     0.000053
      f-3     :     0.000024
  4 H s       :     0.008220  s :     0.008220
      pz      :    -0.000896  p :    -0.001812
      px      :     0.000499
      py      :    -0.001415
      dz2     :     0.000003  d :     0.000006
      dxz     :     0.000005
      dyz     :    -0.000026
      dx2y2   :     0.000000
      dxy     :     0.000024
  5 Sis       :     0.150470  s :     0.150470
      pz      :     0.404988  p :     0.600605
      px      :     0.176680
      py      :     0.018936
      dz2     :     0.000545  d :     0.022628
      dxz     :     0.021317
      dyz     :    -0.000743
      dx2y2   :     0.002890
      dxy     :    -0.001380
      f0      :    -0.000171  f :    -0.000902
      f+1     :    -0.000099
      f-1     :    -0.000481
      f+2     :    -0.000330
      f-2     :    -0.000075
      f+3     :     0.000131
      f-3     :     0.000125
  6 H s       :     0.012398  s :     0.012398
      pz      :     0.004280  p :     0.010890
      px      :     0.005273
      py      :     0.001337
      dz2     :    -0.000002  d :     0.000095
      dxz     :     0.000009
      dyz     :     0.000063
      dx2y2   :     0.000011
      dxy     :     0.000013
  7 Lis       :    -0.007361  s :    -0.007361
      pz      :    -0.000440  p :     0.002275
      px      :     0.002463
      py      :     0.000252
      dz2     :     0.000197  d :     0.001064
      dxz     :     0.000808
      dyz     :     0.000361
      dx2y2   :    -0.000179
      dxy     :    -0.000124


                     *******************************
                     * LOEWDIN POPULATION ANALYSIS *
                     *******************************

-------------------------------------------
LOEWDIN ATOMIC CHARGES AND SPIN POPULATIONS
-------------------------------------------
   0 C :   -0.425541    0.081767
   1 H :   -0.165638    0.080300
   2 H :   -0.126094    0.016974
   3 C :   -0.149867    0.117134
   4 H :   -0.090954   -0.002444
   5 Si:    0.710322    0.633947
   6 H :   -0.147478    0.063559
   7 Li:    0.395249    0.008763

----------------------------------------------------
LOEWDIN REDUCED ORBITAL CHARGES AND SPIN POPULATIONS
----------------------------------------------------
CHARGE
  0 C s       :     2.783044  s :     2.783044
      pz      :     0.825253  p :     2.856281
      px      :     1.052401
      py      :     0.978628
      dz2     :     0.064784  d :     0.759378
      dxz     :     0.091354
      dyz     :     0.032302
      dx2y2   :     0.322388
      dxy     :     0.248550
      f0      :     0.001227  f :     0.026837
      f+1     :     0.002543
      f-1     :     0.002828
      f+2     :     0.001177
      f-2     :     0.001860
      f+3     :     0.010944
      f-3     :     0.006257
  1 H s       :     0.941659  s :     0.941659
      pz      :     0.120502  p :     0.218882
      px      :     0.060414
      py      :     0.037967
      dz2     :     0.001852  d :     0.005097
      dxz     :     0.001923
      dyz     :     0.000488
      dx2y2   :     0.000460
      dxy     :     0.000374
  2 H s       :     0.755414  s :     0.755414
      pz      :     0.075539  p :     0.343255
      px      :     0.121360
      py      :     0.146356
      dz2     :     0.002539  d :     0.027424
      dxz     :     0.004017
      dyz     :     0.001553
      dx2y2   :     0.010486
      dxy     :     0.008830
  3 C s       :     2.857934  s :     2.857934
      pz      :     0.618097  p :     2.786180
      px      :     0.995059
      py      :     1.173024
      dz2     :     0.048625  d :     0.477766
      dxz     :     0.067572
      dyz     :     0.010641
      dx2y2   :     0.174154
      dxy     :     0.176775
      f0      :     0.001952  f :     0.027987
      f+1     :     0.003278
      f-1     :     0.001292
      f+2     :     0.000727
      f-2     :     0.003838
      f+3     :     0.009425
      f-3     :     0.007476
  4 H s       :     0.737947  s :     0.737947
      pz      :     0.093884  p :     0.325304
      px      :     0.083146
      py      :     0.148274
      dz2     :     0.002657  d :     0.027703
      dxz     :     0.000059
      dyz     :     0.007669
      dx2y2   :     0.008219
      dxy     :     0.009100
  5 Sis       :     4.680392  s :     4.680392
      pz      :     2.683860  p :     7.925703
      px      :     2.660618
      py      :     2.581225
      dz2     :     0.090574  d :     0.601989
      dxz     :     0.195863
      dyz     :     0.017373
      dx2y2   :     0.181248
      dxy     :     0.116931
      f0      :     0.006880  f :     0.081594
      f+1     :     0.012705
      f-1     :     0.009114
      f+2     :     0.006256
      f-2     :     0.007692
      f+3     :     0.022823
      f-3     :     0.016124
  6 H s       :     0.889121  s :     0.889121
      pz      :     0.061705  p :     0.253548
      px      :     0.074537
      py      :     0.117306
      dz2     :     0.000663  d :     0.004809
      dxz     :     0.000167
      dyz     :     0.001063
      dx2y2   :     0.001490
      dxy     :     0.001425
  7 Lis       :     2.095263  s :     2.095263
      pz      :     0.037776  p :     0.323037
      px      :     0.142632
      py      :     0.142630
      dz2     :     0.029028  d :     0.186451
      dxz     :     0.002563
      dyz     :     0.027809
      dx2y2   :     0.083995
      dxy     :     0.043055

SPIN
  0 C s       :     0.005149  s :     0.005149
      pz      :    -0.025039  p :    -0.000007
      px      :     0.020682
      py      :     0.004350
      dz2     :     0.001960  d :     0.074522
      dxz     :     0.057221
      dyz     :     0.005707
      dx2y2   :     0.004703
      dxy     :     0.004932
      f0      :     0.000261  f :     0.002103
      f+1     :     0.000011
      f-1     :     0.000033
      f+2     :     0.000115
      f-2     :     0.000961
      f+3     :     0.000595
      f-3     :     0.000128
  1 H s       :     0.022324  s :     0.022324
      pz      :     0.048554  p :     0.057032
      px      :     0.007308
      py      :     0.001170
      dz2     :     0.000864  d :     0.000944
      dxz     :    -0.000037
      dyz     :    -0.000001
      dx2y2   :     0.000088
      dxy     :     0.000030
  2 H s       :     0.004613  s :     0.004613
      pz      :     0.008939  p :     0.011091
      px      :     0.001626
      py      :     0.000526
      dz2     :     0.000016  d :     0.001271
      dxz     :     0.000825
      dyz     :     0.000321
      dx2y2   :     0.000025
      dxy     :     0.000084
  3 C s       :     0.005568  s :     0.005568
      pz      :     0.087414  p :     0.105982
      px      :     0.006751
      py      :     0.011818
      dz2     :     0.000359  d :     0.005742
      dxz     :    -0.004000
      dyz     :    -0.000861
      dx2y2   :     0.005751
      dxy     :     0.004493
      f0      :    -0.000285  f :    -0.000159
      f+1     :    -0.000089
      f-1     :    -0.000013
      f+2     :    -0.000083
      f-2     :    -0.000128
      f+3     :     0.000435
      f-3     :     0.000005
  4 H s       :     0.000798  s :     0.000798
      pz      :    -0.005041  p :    -0.003106
      px      :     0.001400
      py      :     0.000535
      dz2     :     0.000017  d :    -0.000136
      dxz     :     0.000011
      dyz     :    -0.000330
      dx2y2   :     0.000011
      dxy     :     0.000155
  5 Sis       :     0.079099  s :     0.079099
      pz      :     0.332831  p :     0.497256
      px      :     0.155395
      py      :     0.009030
      dz2     :     0.003606  d :     0.054251
      dxz     :     0.048934
      dyz     :    -0.001108
      dx2y2   :     0.003505
      dxy     :    -0.000686
      f0      :     0.000151  f :     0.003341
      f+1     :     0.000857
      f-1     :    -0.000360
      f+2     :    -0.000106
      f-2     :     0.000271
      f+3     :     0.000906
      f-3     :     0.001622
  6 H s       :     0.007269  s :     0.007269
      pz      :     0.029602  p :     0.055339
      px      :     0.015380
      py      :     0.010357
      dz2     :    -0.000013  d :     0.000951
      dxz     :     0.000123
      dyz     :     0.000577
      dx2y2   :    -0.000003
      dxy     :     0.000267
  7 Lis       :    -0.003120  s :    -0.003120
      pz      :     0.000741  p :     0.006596
      px      :     0.003949
      py      :     0.001907
      dz2     :     0.000414  d :     0.005286
      dxz     :     0.001899
      dyz     :     0.001690
      dx2y2   :     0.001112
      dxy     :     0.000171


                      *****************************
                      * MAYER POPULATION ANALYSIS *
                      *****************************

  NA   - Mulliken gross atomic population
  ZA   - Total nuclear charge
  QA   - Mulliken gross atomic charge
  VA   - Mayer's total valence
  BVA  - Mayer's bonded valence
  FA   - Mayer's free valence

  ATOM       NA         ZA         QA         VA         BVA        FA
  0 C      5.9880     6.0000     0.0120     3.6570     3.6486     0.0084
  1 H      1.1171     1.0000    -0.1171     0.9912     0.9868     0.0044
  2 H      1.0534     1.0000    -0.0534     1.3156     1.3154     0.0002
  3 C      6.6823     6.0000    -0.6823     3.2796     3.2516     0.0280
  4 H      0.9249     1.0000     0.0751     0.9570     0.9569     0.0001
  5 Si    13.6885    14.0000     0.3115     3.7239     3.0431     0.6808
  6 H      1.3179     1.0000    -0.3179     0.9211     0.9186     0.0025
  7 Li     2.2279     3.0000     0.7721     0.4636     0.4635     0.0001

  Mayer bond orders larger than 0.100000
B(  0-C ,  3-C ) :   1.5090 B(  0-C ,  4-H ) :   0.9981 B(  0-C ,  5-Si) :   1.0907 
B(  1-H ,  5-Si) :   0.9522 B(  2-H ,  3-C ) :   1.2169 B(  3-C ,  5-Si) :   0.2155 
B(  3-C ,  7-Li) :   0.2406 B(  5-Si,  6-H ) :   0.7309 B(  6-H ,  7-Li) :   0.1210 


-------
TIMINGS
-------

Total SCF time: 0 days 0 hours 0 min 4 sec 

Total time                  ....       4.487 sec
Sum of individual times     ....       4.312 sec  ( 96.1%)

Fock matrix formation       ....       3.675 sec  ( 81.9%)
  XC integration            ....       0.798 sec  ( 21.7% of F)
    Basis function eval.    ....       0.093 sec  ( 11.7% of XC)
    Density eval.           ....       0.136 sec  ( 17.0% of XC)
    XC-Functional eval.     ....       0.026 sec  (  3.2% of XC)
    XC-Potential eval.      ....       0.278 sec  ( 34.8% of XC)
Diagonalization             ....       0.198 sec  (  4.4%)
Density matrix formation    ....       0.022 sec  (  0.5%)
Population analysis         ....       0.015 sec  (  0.3%)
Initial guess               ....       0.114 sec  (  2.5%)
Orbital Transformation      ....       0.000 sec  (  0.0%)
Orbital Orthonormalization  ....       0.000 sec  (  0.0%)
DIIS solution               ....       0.069 sec  (  1.5%)
Grid generation             ....       0.218 sec  (  4.9%)


           ************************************************************
           *        Program running with 24 parallel MPI-processes    *
           *              working on a common directory               *
           ************************************************************

------------------------------------------------------------------------------
                                ORCA  MP2 
------------------------------------------------------------------------------

Freezing NCore=14 chemical core electrons

-------------
RI-MP2 ENERGY
-------------
Dimension of the basis                    ...  212
Memory devoted to MP2                     ... 5000 MB   
Data format for buffers                   ... DOUBLE
Compression type for matrix containers    ... UNCOMPRESSED
Overall scaling of the MP2 energy         ...   2.700e-01
Calculating two index integrals           ... done (    0.003 sec)
Cholesky decomposition of V**-1           ... done (    0.020 sec)

-----------------
RI-TRANSFORMATION (AUX index driven)
-----------------

Dimension of the orbital-basis         ... 212
Dimension of the aux-basis             ... 537
Transformation of internal/external MOs...    7-  16 to   17- 211
Number Format for Storage              ... Double (8 Byte)
Integral mode                          ... Direct

First Phase: integral generation and transformation of MO indices
  Aux angular momentum 0               ... done (    0.004 sec)
  Aux angular momentum 1               ... done (    0.004 sec)
  Aux angular momentum 2               ... done (    0.006 sec)
  Aux angular momentum 3               ... done (    0.004 sec)
  Aux angular momentum 4               ... done (    0.006 sec)
Closing buffer VIA ( 0.01 GB; CompressionRatio= 1.00)
  Phase 1 completed in     0.096 sec
Second Phase: sorting and transformation of aux index

IA-Transformation
Memory available                       ... 4993 MB 
Max. # MO pairs treated in a batch     ... 1    
# of internal orbitals                 ... 10
# batches for internal orbitals        ... 1
Closing buffer IAV ( 0.00 GB; CompressionRatio= 1.00)
(ia|v) transformation done in     0.008 sec

  Phase 2 completed in     0.017 sec
RI-Integral transformation completed in     0.114 sec

-----------------
RI-TRANSFORMATION (AUX index driven)
-----------------

Dimension of the orbital-basis         ... 212
Dimension of the aux-basis             ... 537
Transformation of internal/external MOs...    7-  15 to   16- 211
Number Format for Storage              ... Double (8 Byte)
Integral mode                          ... Direct

First Phase: integral generation and transformation of MO indices
  Aux angular momentum 0               ... done (    0.003 sec)
  Aux angular momentum 1               ... done (    0.004 sec)
  Aux angular momentum 2               ... done (    0.006 sec)
  Aux angular momentum 3               ... done (    0.004 sec)
  Aux angular momentum 4               ... done (    0.006 sec)
Closing buffer VIA ( 0.01 GB; CompressionRatio= 1.00)
  Phase 1 completed in     0.095 sec
Second Phase: sorting and transformation of aux index

IA-Transformation
Memory available                       ... 4993 MB 
Max. # MO pairs treated in a batch     ... 1    
# of internal orbitals                 ... 9
# batches for internal orbitals        ... 1
Closing buffer IAV ( 0.00 GB; CompressionRatio= 1.00)
(ia|v) transformation done in     0.006 sec

  Phase 2 completed in     0.015 sec
RI-Integral transformation completed in     0.111 sec
Opening buffers                              ... done

Starting loop over batches of integrals:

Operator 0  - window                       ... (  7- 16)x( 17-211)
Operator 0  - Memory available             ...  5000 MB
Operator 0  - Memory needed per MO         ...   0.8 MB
Operator 0  - Number of orbitals per batch ... 1
Operator 0  - Number of batches            ... 1

OPERATOR  0   PASS   0:  MOs     7 ...    7 +    8 ...    8 +    9 ...    9 +   10 ...   10
                            +   11 ...   11 +   12 ...   12 +   13 ...   13 +   14 ...   14
                            +   15 ...   15 +   16 ...   16
  Reading integrals       ... ok

Operator 1  - window                       ... (  7- 15)x( 16-211)
Operator 1  - Memory available             ...  5000 MB
Operator 1  - Memory needed per MO         ...   0.8 MB
Operator 1  - Number of orbitals per batch ... 1
Operator 1  - Number of batches            ... 1

OPERATOR  1   PASS   0:  MOs     7 ...    7 +    8 ...    8 +    9 ...    9 +   10 ...   10
                            +   11 ...   11 +   12 ...   12 +   13 ...   13 +   14 ...   14
                            +   15 ...   15
  Reading integrals       ... ok
Time spent in pair loops =     0.032 sec
Deleting buffer (Ka|jb)[aa] ...done
Deleting buffer (Ka|jb)[ab] ...done
Deleting buffer (Ka|jb)[ba] ...done
Deleting buffer (Ka|jb)[bb] ...done

Correlation energy components}
 E2 and T2 for alpha/alpha pairs :     -0.017881386 Eh      0.000000000
 E2 and T2 for beta/beta   pairs :     -0.015519959 Eh      0.000000000
 E2 and T2 for alpha/beta  pairs :     -0.124108144 Eh      0.000000000


-----------------------------------------------
 RI-MP2 CORRELATION ENERGY:     -0.157509489 Eh
-----------------------------------------------


-------
TIMINGS
-------

Total time                :    0.330 sec
Integral trafo            :    0.265 sec ( 80.4%)
I/O of integrals          :    0.001 sec (  0.4%)
K(i,j) Operators          :    0.014 sec (  4.3%)
T(i,j) pair energies      :    0.001 sec (  0.4%)
V-calculation             :    0.003 sec (  0.8%)
V**(-1/2)                 :    0.020 sec (  5.9%)
Gamma(ia|P)               :    0.000 sec (  0.0%)
Gamma-Trafo               :    0.000 sec (  0.0%)
D(virtual)                :    0.000 sec (  0.0%)
D(internal)               :    0.000 sec (  0.0%)
W(virtual)                :    0.000 sec (  0.0%)
W(internal)               :    0.000 sec (  0.0%)
L(virtual)                :    0.000 sec (  0.0%)
L(internal)               :    0.000 sec (  0.0%)
G(D)                      :    0.000 sec (  0.0%)
G(Z)                      :    0.000 sec (  0.0%)
Z-Vector Solution         :    0.000 sec (  0.0%)
Z-Vector Solution         :    0.000 sec (  0.0%)
3-Index Derivative 
+ Separable RIJ part      :    0.000 sec (  0.0%)
2-Index Derivative 
+ Separable RIJ part      :    0.000 sec (  0.0%)
Separable Gradient (X)    :    0.000 sec (  0.0%)


---------------------------------------
MP2 TOTAL ENERGY:     -375.369299178 Eh
---------------------------------------


-------------------------------------------------------------------------------
                          DFT DISPERSION CORRECTION                            
                                                                               
                              DFTD3 V3.1  Rev 1                                
                          USING Becke-Johnson damping                          
-------------------------------------------------------------------------------
The B2PLYP functional is recognized
Active option DFTDOPT                   ...         4   

molecular C6(AA) [au] = 1463.301972 


            DFT-D V3
 parameters
 s6 scaling factor         :     0.6400 
 a1 scaling factor         :     0.3065 
 s8 scaling factor         :     0.9147 
 a2 scaling factor         :     5.0570 
 ad hoc parameters k1-k3   :    16.0000     1.3333    -4.0000 

 Edisp/kcal,au: -3.686671669259  -0.005875084646 
 E6   /kcal   :  -1.747735021 
 E8   /kcal   :  -1.938936648 
 % E8         :  52.593146937 

-------------------------   ----------------
Dispersion correction           -0.005875085
-------------------------   ----------------


-------------------------   --------------------
FINAL SINGLE POINT ENERGY      -375.375174262697
-------------------------   --------------------


                            ***************************************
                            *     ORCA property calculations      *
                            ***************************************


  WARNING: The energy has been calculated at the MP2 level but the densities
           used in the property calculations are still SCF densities
           MP2 response densities have not been calculated 
           use %mp2 Density relaxed end
           or  %mp2 Density unrelaxed end

                                    ---------------------
                                    Active property flags
                                    ---------------------
   (+) Dipole Moment


------------------------------------------------------------------------------
                       ORCA ELECTRIC PROPERTIES CALCULATION
------------------------------------------------------------------------------

Dipole Moment Calculation                       ... on
Quadrupole Moment Calculation                   ... off
Polarizability Calculation                      ... off
GBWName                                         ... 104.gbw
Electron density file                           ... 104.scfp
The origin for moment calculation is the CENTER OF MASS  = (-0.500057, -0.135647 -0.285939)

-------------
DIPOLE MOMENT
-------------
                                X             Y             Z
Electronic contribution:      1.12941      -4.43384      -1.19859
Nuclear contribution   :     -0.90522       2.81558       1.17165
                        -----------------------------------------
Total Dipole Moment    :      0.22419      -1.61826      -0.02694
                        -----------------------------------------
Magnitude (a.u.)       :      1.63394
Magnitude (Debye)      :      4.15314



--------------------
Rotational spectrum 
--------------------
 
Rotational constants in cm-1:     0.419182     0.179284     0.128388 
Rotational constants in MHz : 12566.751634  5374.809128  3848.967152 

 Dipole components along the rotational axes: 
x,y,z [a.u.] :     0.224312     1.618243    -0.026945 
x,y,z [Debye]:     0.570157     4.113247    -0.068488 

 

Timings for individual modules:

Sum of individual times         ...        6.143 sec (=   0.102 min)
GTO integral calculation        ...        0.546 sec (=   0.009 min)   8.9 %
SCF iterations                  ...        4.827 sec (=   0.080 min)  78.6 %
MP2 module                      ...        0.770 sec (=   0.013 min)  12.5 %
                             ****ORCA TERMINATED NORMALLY****
TOTAL RUN TIME: 0 days 0 hours 0 minutes 6 seconds 653 msec
