
                                 *****************
                                 * O   R   C   A *
                                 *****************

           --- An Ab Initio, DFT and Semiempirical electronic structure package ---

                  #######################################################
                  #                        -***-                        #
                  #          Department of theory and spectroscopy      #
                  #               Directorship: Frank Neese             #
                  #        Max Planck Institute fuer Kohlenforschung    #
                  #                Kaiser Wilhelm Platz 1               #
                  #                 D-45470 Muelheim/Ruhr               #
                  #                      Germany                        #
                  #                                                     #
                  #                  All rights reserved                #
                  #                        -***-                        #
                  #######################################################


                         Program Version 4.2.0 -  RELEASE  -


 With contributions from (in alphabetic order):
   Daniel Aravena         : Magnetic Suceptibility
   Michael Atanasov       : Ab Initio Ligand Field Theory (pilot matlab implementation)
   Alexander A. Auer      : GIAO ZORA, VPT2
   Ute Becker             : Parallelization
   Giovanni Bistoni       : ED, misc. LED, open-shell LED, HFLED
   Martin Brehm           : Molecular dynamics
   Dmytro Bykov           : SCF Hessian
   Vijay G. Chilkuri      : MRCI spin determinant printing, contributions to CSF-ICE
   Dipayan Datta          : RHF DLPNO-CCSD density
   Achintya Kumar Dutta   : EOM-CC, STEOM-CC
   Dmitry Ganyushin       : Spin-Orbit,Spin-Spin,Magnetic field MRCI
   Miquel Garcia          : C-PCM Hessian, Gaussian charge scheme
   Yang Guo               : DLPNO-NEVPT2, CIM, IAO-localization
   Andreas Hansen         : Spin unrestricted coupled pair/coupled cluster methods
   Benjamin Helmich-Paris : CASSCF linear response (MC-RPA)
   Lee Huntington         : MR-EOM, pCC
   Robert Izsak           : Overlap fitted RIJCOSX, COSX-SCS-MP3, EOM
   Christian Kollmar      : KDIIS, OOCD, Brueckner-CCSD(T), CCSD density
   Simone Kossmann        : Meta GGA functionals, TD-DFT gradient, OOMP2, MP2 Hessian
   Martin Krupicka        : AUTO-CI
   Lucas Lang             : DCDCAS
   Dagmar Lenk            : GEPOL surface, SMD
   Dimitrios Liakos       : Extrapolation schemes; Compound Job, initial MDCI parallelization
   Dimitrios Manganas     : Further ROCIS development; embedding schemes
   Dimitrios Pantazis     : SARC Basis sets
   Taras Petrenko         : DFT Hessian,TD-DFT gradient, ASA, ECA, R-Raman, ABS, FL, XAS/XES, NRVS
   Peter Pinski           : DLPNO-MP2, DLPNO-MP2 Gradient
   Christoph Reimann      : Effective Core Potentials
   Marius Retegan         : Local ZFS, SOC
   Christoph Riplinger    : Optimizer, TS searches, QM/MM, DLPNO-CCSD(T), (RO)-DLPNO pert. Triples
   Tobias Risthaus        : Range-separated hybrids, TD-DFT gradient, RPA, STAB
   Michael Roemelt        : Original ROCIS implementation
   Masaaki Saitow         : Open-shell DLPNO-CCSD energy and density
   Barbara Sandhoefer     : DKH picture change effects
   Avijit Sen             : IP-ROCIS
   Kantharuban Sivalingam : CASSCF convergence, NEVPT2, FIC-MRCI
   Bernardo de Souza      : ESD, SOC TD-DFT
   Georgi Stoychev        : AutoAux, RI-MP2 NMR
   Willem Van den Heuvel  : Paramagnetic NMR
   Boris Wezisla          : Elementary symmetry handling
   Frank Wennmohs         : Technical directorship


 We gratefully acknowledge several colleagues who have allowed us to
 interface, adapt or use parts of their codes:
   Stefan Grimme, W. Hujo, H. Kruse,             : VdW corrections, initial TS optimization,
                  C. Bannwarth                     DFT functionals, gCP, sTDA/sTD-DF
   Ed Valeev, F. Pavosevic, A. Kumar             : LibInt (2-el integral package), F12 methods
   Garnet Chan, S. Sharma, J. Yang, R. Olivares  : DMRG
   Ulf Ekstrom                                   : XCFun DFT Library
   Mihaly Kallay                                 : mrcc  (arbitrary order and MRCC methods)
   Andreas Klamt, Michael Diedenhofen            : otool_cosmo (COSMO solvation model)
   Jiri Pittner, Ondrej Demel                    : Mk-CCSD
   Frank Weinhold                                : gennbo (NPA and NBO analysis)
   Christopher J. Cramer and Donald G. Truhlar   : smd solvation model
   Lars Goerigk                                  : TD-DFT with DH, B97 family of functionals
   V. Asgeirsson, H. Jonsson                     : NEB implementation
   FAccTs GmbH                                   : IRC, NEB, NEB-TS, Multilevel, MM, QM/MM, CI optimization
   S Lehtola, MJT Oliveira, MAL Marques          : LibXC Library


 Your calculation uses the libint2 library for the computation of 2-el integrals
 For citations please refer to: http://libint.valeyev.net

 Your ORCA version has been built with support for libXC version: 4.2.3
 For citations please refer to: https://tddft.org/programs/libxc/

 This ORCA versions uses:
   CBLAS   interface :  Fast vector & matrix operations
   LAPACKE interface :  Fast linear algebra routines
   SCALAPACK package :  Parallel linear algebra routines


Your calculation utilizes the atom-pairwise dispersion correction
with the Becke-Johnson damping scheme (D3BJ)
Cite in your paper:
S.Grimme, S.Ehrlich, L.Goerigk, J Comput Chem, (2011), 32, 1456–1465 
S.Grimme, J.Antony, S.Ehrlich and H.Krieg, J.Chem.Phys., 132, (2010), 154104 
   

----- Orbital basis set information -----
Your calculation utilizes the basis: def2-TZVPPD
   F. Weigend and R. Ahlrichs, Phys. Chem. Chem. Phys. 7, 3297 (2005).
   D. Rappoport and F. Furche, J. Chem. Phys. 133 134105 (2010).

----- AuxC basis set information -----
Your calculation utilizes the auxiliary basis: def2-TZVPPD/C
   A. Hellweg, C. Hattig, S. Hofener and W. Klopper, Theor. Chem. Acc. 117, 587 (2007).

----- AuxJK basis set information -----
Your calculation utilizes the auxiliary basis: def2/JK
   H-Ba, Hf-Rn: F. Weigend, J. Comput. Chem. 29, 167 (2008).

================================================================================
                                        WARNINGS
                       Please study these warnings very carefully!
================================================================================


WARNING: your system is open-shell and RHF/RKS was chosen
  ===> : WILL SWITCH to UHF/UKS


WARNING: No MP2 level density has been requested!
         To caclulate MP2 level properties use
         %mp2 Density relaxed end
         or
         %mp2 Density unrelaxed end
         Otherwise for double-hybrid DFT only the energy is correct!

WARNING: The frozen-core approximation is turned on by default for 
         the MP2 part of double-hybrid DFT.

INFO   : the flag for use of LIBINT has been found!

================================================================================
                                       INPUT FILE
================================================================================
NAME = 123.in
|  1> #
|  2> # 123 ri-B2PLYP-D3BJ/Def2-TZVPPD
|  3> #
|  4> ! rijk ri-b2plyp d3bj def2-tzvppd def2/jk def2-tzvppd/c grid4 nofinalgrid
|  5> 
|  6> *xyz 0 2
|  7> H         -0.05566       -1.00378        1.35004
|  8> H         -0.85108        0.57288        1.07820
|  9> C          0.00090       -0.05557        0.78344
| 10> H         -0.84105       -0.66759       -1.01558
| 11> H          0.91403        0.47335        1.08996
| 12> H          0.01842        1.61333       -1.60506
| 13> H          0.81267       -0.72579       -1.00914
| 14> N          0.00176       -0.20682       -0.67186
| 15> *
| 16> 
| 17> %maxcore 5000
| 18> 
| 19> %pal
| 20> nprocs = 24
| 21> end
| 22> 
| 23> 
| 24>                          ****END OF INPUT****
================================================================================

                       ****************************
                       * Single Point Calculation *
                       ****************************

---------------------------------
CARTESIAN COORDINATES (ANGSTROEM)
---------------------------------
  H     -0.055660   -1.003780    1.350040
  H     -0.851080    0.572880    1.078200
  C      0.000900   -0.055570    0.783440
  H     -0.841050   -0.667590   -1.015580
  H      0.914030    0.473350    1.089960
  H      0.018420    1.613330   -1.605060
  H      0.812670   -0.725790   -1.009140
  N      0.001760   -0.206820   -0.671860

----------------------------
CARTESIAN COORDINATES (A.U.)
----------------------------
  NO LB      ZA    FRAG     MASS         X           Y           Z
   0 H     1.0000    0     1.008   -0.105182   -1.896869    2.551206
   1 H     1.0000    0     1.008   -1.608308    1.082586    2.037503
   2 C     6.0000    0    12.011    0.001701   -0.105012    1.480487
   3 H     1.0000    0     1.008   -1.589354   -1.261562   -1.919168
   4 H     1.0000    0     1.008    1.727266    0.894502    2.059726
   5 H     1.0000    0     1.008    0.034809    3.048752   -3.033124
   6 H     1.0000    0     1.008    1.535724   -1.371544   -1.906998
   7 N     7.0000    0    14.007    0.003326   -0.390833   -1.269631

--------------------------------
INTERNAL COORDINATES (ANGSTROEM)
--------------------------------
 H      0   0   0     0.000000000000     0.00000000     0.00000000
 H      1   0   0     1.786741928091     0.00000000     0.00000000
 C      2   1   0     1.098955313241    36.00687967     0.00000000
 H      3   2   1     2.078442023079    94.96235184   102.03919305
 H      3   2   1     1.098870908569   107.10659450   243.54424698
 H      4   3   2     2.507742290926    78.27591057    79.73626460
 H      4   3   2     1.654756342185    66.55644743   154.98275484
 N      7   4   3     1.020128760206    35.80452640   324.43929458

---------------------------
INTERNAL COORDINATES (A.U.)
---------------------------
 H      0   0   0     0.000000000000     0.00000000     0.00000000
 H      1   0   0     3.376452916087     0.00000000     0.00000000
 C      2   1   0     2.076724575443    36.00687967     0.00000000
 H      3   2   1     3.927686208852    94.96235184   102.03919305
 H      3   2   1     2.076565073729   107.10659450   243.54424698
 H      4   3   2     4.738946144303    78.27591057    79.73626460
 H      4   3   2     3.127036305098    66.55644743   154.98275484
 N      7   4   3     1.927763978126    35.80452640   324.43929458

---------------------
BASIS SET INFORMATION
---------------------
There are 3 groups of distinct atoms

 Group   1 Type H   : 5s3p1d contracted to 3s3p1d pattern {311/111/1}
 Group   2 Type C   : 12s6p3d1f contracted to 6s3p3d1f pattern {621111/411/111/1}
 Group   3 Type N   : 12s6p3d1f contracted to 6s3p3d1f pattern {621111/411/111/1}

Atom   0H    basis set group =>   1
Atom   1H    basis set group =>   1
Atom   2C    basis set group =>   2
Atom   3H    basis set group =>   1
Atom   4H    basis set group =>   1
Atom   5H    basis set group =>   1
Atom   6H    basis set group =>   1
Atom   7N    basis set group =>   3
---------------------------------
AUXILIARY/C BASIS SET INFORMATION
---------------------------------
There are 3 groups of distinct atoms

 Group   1 Type H   : 5s4p3d1f contracted to 5s4p3d1f pattern {11111/1111/111/1}
 Group   2 Type C   : 9s7p6d4f1g contracted to 9s7p5d4f1g pattern {111111111/1111111/21111/1111/1}
 Group   3 Type N   : 9s7p6d4f1g contracted to 9s7p5d4f1g pattern {111111111/1111111/21111/1111/1}

Atom   0H    basis set group =>   1
Atom   1H    basis set group =>   1
Atom   2C    basis set group =>   2
Atom   3H    basis set group =>   1
Atom   4H    basis set group =>   1
Atom   5H    basis set group =>   1
Atom   6H    basis set group =>   1
Atom   7N    basis set group =>   3
----------------------------------
AUXILIARY/JK BASIS SET INFORMATION
----------------------------------
There are 3 groups of distinct atoms

 Group   1 Type H   : 4s2p2d contracted to 2s2p2d pattern {31/11/11}
 Group   2 Type C   : 14s10p6d2f1g contracted to 10s8p5d1f1g pattern {5111111111/31111111/21111/2/1}
 Group   3 Type N   : 14s10p6d2f1g contracted to 10s8p4d2f1g pattern {5111111111/31111111/3111/11/1}

Atom   0H    basis set group =>   1
Atom   1H    basis set group =>   1
Atom   2C    basis set group =>   2
Atom   3H    basis set group =>   1
Atom   4H    basis set group =>   1
Atom   5H    basis set group =>   1
Atom   6H    basis set group =>   1
Atom   7N    basis set group =>   3


           ************************************************************
           *        Program running with 24 parallel MPI-processes    *
           *              working on a common directory               *
           ************************************************************
------------------------------------------------------------------------------
                           ORCA GTO INTEGRAL CALCULATION
                           -- RI-GTO INTEGRALS CHOSEN --
------------------------------------------------------------------------------

                         BASIS SET STATISTICS AND STARTUP INFO

Gaussian basis set:
 # of primitive gaussian shells          ...   98
 # of primitive gaussian functions       ...  218
 # of contracted shells                  ...   68
 # of contracted basis functions         ...  176
 Highest angular momentum                ...    3
 Maximum contraction depth               ...    6
Auxiliary gaussian basis set:
 # of primitive gaussian shells          ...  114
 # of primitive gaussian functions       ...  314
 # of contracted shells                  ...   86
 # of contracted aux-basis functions     ...  260
 Highest angular momentum                ...    4
 Maximum contraction depth               ...    5
Ratio of auxiliary to basis functions    ...  1.48
Integral package used                  ... LIBINT
 One Electron integrals                  ... done
 Ordering auxiliary basis shells         ... done
 Integral threshhold             Thresh  ...  1.000e-10
 Primitive cut-off               TCut    ...  1.000e-11
 Pre-screening matrix                    ... done
 Shell pair data                         ... 
 Ordering of the shell pairs             ... done (   0.000 sec) 2337 of 2346 pairs
 Determination of significant pairs      ... done (   0.000 sec)
 Creation of shell pair data             ... done (   0.000 sec)
 Storage of shell pair data              ... done (   0.035 sec)
 Shell pair data done in (   0.036 sec)
 Computing two index integrals           ... done
 Cholesky decomposition of the V-matrix  ... done


Timings:
 Total evaluation time                   ...   0.170 sec (  0.003 min)
 One electron matrix time                ...   0.019 sec (  0.000 min) = 11.4%
 Schwartz matrix evaluation time         ...   0.091 sec (  0.002 min) = 53.4%
 Two index repulsion integral time       ...   0.002 sec (  0.000 min) =  1.1%
 Cholesky decomposition of V             ...   0.002 sec (  0.000 min) =  1.0%
 Three index repulsion integral time     ...   0.000 sec (  0.000 min) =  0.0%



           ************************************************************
           *        Program running with 24 parallel MPI-processes    *
           *              working on a common directory               *
           ************************************************************
-------------------------------------------------------------------------------
                                 ORCA SCF
-------------------------------------------------------------------------------

------------
SCF SETTINGS
------------
Hamiltonian:
 Density Functional     Method          .... DFT(GTOs)
 Exchange Functional    Exchange        .... B88
   X-Alpha parameter    XAlpha          ....  0.666667
   Becke's b parameter  XBeta           ....  0.004200
 Correlation Functional Correlation     .... LYP
 LDA part of GGA corr.  LDAOpt          .... VWN-3
 Gradients option       PostSCFGGA      .... off
 Hybrid DFT is turned on
   Fraction HF Exchange ScalHFX         ....  0.530000
   Scaling of DF-GGA-X  ScalDFX         ....  0.470000
   Scaling of DF-GGA-C  ScalDFC         ....  0.730000
   Scaling of DF-LDA-C  ScalLDAC        ....  0.730000
   Perturbative correction              ....  0.270000
   Density functional embedding theory  .... OFF
 RI-approximation to the Coulomb term is turned on
   Number of auxiliary basis functions  .... 260
   RI-JK (J+K treated both via RI)      .... on


General Settings:
 Integral files         IntName         .... 123
 Hartree-Fock type      HFTyp           .... UHF
 Total Charge           Charge          ....    0
 Multiplicity           Mult            ....    2
 Number of Electrons    NEL             ....   19
 Basis Dimension        Dim             ....  176
 Nuclear Repulsion      ENuc            ....     45.6194448278 Eh

Convergence Acceleration:
 DIIS                   CNVDIIS         .... on
   Start iteration      DIISMaxIt       ....    12
   Startup error        DIISStart       ....  0.200000
   # of expansion vecs  DIISMaxEq       ....     5
   Bias factor          DIISBfac        ....   1.050
   Max. coefficient     DIISMaxC        ....  10.000
 Newton-Raphson         CNVNR           .... off
 SOSCF                  CNVSOSCF        .... off
 Level Shifting         CNVShift        .... on
   Level shift para.    LevelShift      ....    0.2500
   Turn off err/grad.   ShiftErr        ....    0.0010
 Zerner damping         CNVZerner       .... off
 Static damping         CNVDamp         .... on
   Fraction old density DampFac         ....    0.7000
   Max. Damping (<1)    DampMax         ....    0.9800
   Min. Damping (>=0)   DampMin         ....    0.0000
   Turn off err/grad.   DampErr         ....    0.1000
 Fernandez-Rico         CNVRico         .... off

SCF Procedure:
 Maximum # iterations   MaxIter         ....   125
 SCF integral mode      SCFMode         .... Direct
   Integral package                     .... LIBINT
 Reset frequency        DirectResetFreq ....    20
 Integral Threshold     Thresh          ....  1.000e-10 Eh
 Primitive CutOff       TCut            ....  1.000e-11 Eh

Convergence Tolerance:
 Convergence Check Mode ConvCheckMode   .... Total+1el-Energy
 Convergence forced     ConvForced      .... 0
 Energy Change          TolE            ....  1.000e-06 Eh
 1-El. energy change                    ....  1.000e-03 Eh
 DIIS Error             TolErr          ....  1.000e-06


Diagonalization of the overlap matrix:
Smallest eigenvalue                        ... 2.946e-05
Time for diagonalization                   ...    0.007 sec
Threshold for overlap eigenvalues          ... 1.000e-08
Number of eigenvalues below threshold      ... 0
Time for construction of square roots      ...    0.003 sec
Total time needed                          ...    0.010 sec

-------------------
DFT GRID GENERATION
-------------------

General Integration Accuracy     IntAcc      ...  4.670
Radial Grid Type                 RadialGrid  ... Gauss-Chebyshev
Angular Grid (max. acc.)         AngularGrid ... Lebedev-302
Angular grid pruning method      GridPruning ... 3 (G Style)
Weight generation scheme         WeightScheme... Becke
Basis function cutoff            BFCut       ...    1.0000e-10
Integration weight cutoff        WCut        ...    1.0000e-14
Grids for H and He will be reduced by one unit

# of grid points (after initial pruning)     ...  32788 (   0.0 sec)
# of grid points (after weights+screening)   ...  31357 (   0.0 sec)
nearest neighbour list constructed           ...    0.0 sec
Grid point re-assignment to atoms done       ...    0.0 sec
Grid point division into batches done        ...    0.1 sec
Reduced shell lists constructed in    0.1 sec

Total number of grid points                  ...    31357
Total number of batches                      ...      493
Average number of points per batch           ...       63
Average number of grid points per atom       ...     3920
Average number of shells per batch           ...    31.41 (46.19%)
Average number of basis functions per batch  ...    76.59 (43.52%)
Average number of large shells per batch     ...    23.68 (75.40%)
Average number of large basis fcns per batch ...    57.59 (75.19%)
Average number of aux-shells per batch       ...    31.41 (36.52%)
Average number of aux functions per batch    ...    76.59 (29.46%)
Maximum spatial batch extension              ...  16.67, 14.98, 15.89 au
Average spatial batch extension              ...   0.35,  0.34,  0.32 au

Time for grid setup =    0.163 sec

------------------------------
INITIAL GUESS: MODEL POTENTIAL
------------------------------
Loading Hartree-Fock densities                     ... done
Calculating cut-offs                               ... done
Setting up the integral package                    ... done
Initializing the effective Hamiltonian             ... done
Starting the Coulomb interaction                   ... done (   0.0 sec)
Reading the grid                                   ... done
Mapping shells                                     ... done
Starting the XC term evaluation                    ... done (   0.0 sec)
  promolecular density results
     # of electrons  =     18.997134359
     EX              =    -13.442963504
     EC              =     -0.179541478
     EX+EC           =    -13.622504983
Transforming the Hamiltonian                       ... done (   0.0 sec)
Diagonalizing the Hamiltonian                      ... done (   0.0 sec)
Back transforming the eigenvectors                 ... done (   0.0 sec)
Now organizing SCF variables                       ... done
                      ------------------
                      INITIAL GUESS DONE (   0.3 sec)
                      ------------------
--------------
SCF ITERATIONS
--------------
ITER       Energy         Delta-E        Max-DP      RMS-DP      [F,P]     Damp
  0    -96.0571974178   0.000000000000 0.02172439  0.00046006  0.2635723 0.7000
  1    -96.0112796632   0.045917754608 0.01882221  0.00044255  0.1980114 0.7000
                               ***Turning on DIIS***
  2    -96.0424996596  -0.031219996359 0.03267694  0.00086623  0.0814508 0.0000
  3    -96.1360078781  -0.093508218544 0.00829876  0.00012620  0.1527990 0.7000
  4    -96.1699069642  -0.033899086025 0.01031381  0.00013551  0.1383086 0.7000
  5    -96.1803774663  -0.010470502123 0.01029960  0.00012381  0.1078144 0.7000
  6    -96.1840322803  -0.003654814065 0.03240911  0.00035853  0.0801387 0.0000
  7    -96.1763065285   0.007725751872 0.00876256  0.00007874  0.0036335 0.0000
  8    -96.1764237988  -0.000117270319 0.00666425  0.00005672  0.0035717 0.0000
  9    -96.1764792636  -0.000055464856 0.00495885  0.00004299  0.0018902 0.0000
 10    -96.1765054305  -0.000026166902 0.00425940  0.00003823  0.0012324 0.0000
 11    -96.1765206360  -0.000015205492 0.00498869  0.00004767  0.0006660 0.0000
 12    -96.1765273557  -0.000006719660 0.00118659  0.00001162  0.0001283 0.0000
                 **** Energy Check signals convergence ****

               *****************************************************
               *                     SUCCESS                       *
               *           SCF CONVERGED AFTER  13 CYCLES          *
               *****************************************************


----------------
TOTAL SCF ENERGY
----------------

Total Energy       :          -96.17652772 Eh           -2617.09637 eV

Components:
Nuclear Repulsion  :           45.61944483 Eh            1241.36820 eV
Electronic Energy  :         -141.79597255 Eh           -3858.46457 eV
One Electron Energy:         -219.08661338 Eh           -5961.64983 eV
Two Electron Energy:           77.29064083 Eh            2103.18526 eV

Virial components:
Potential Energy   :         -191.93131244 Eh           -5222.71653 eV
Kinetic Energy     :           95.75478472 Eh            2605.62016 eV
Virial Ratio       :            2.00440441


DFT components:
N(Alpha)           :       10.000020665936 electrons
N(Beta)            :        9.000017579862 electrons
N(Total)           :       19.000038245799 electrons
E(X)               :       -6.521417727123 Eh       
E(C)               :       -0.425150352590 Eh       
E(XC)              :       -6.946568079712 Eh       
DFET-embed. en.    :        0.000000000000 Eh       

---------------
SCF CONVERGENCE
---------------

  Last Energy change         ...   -3.6567e-07  Tolerance :   1.0000e-06
  Last MAX-Density change    ...    9.8132e-05  Tolerance :   1.0000e-05
  Last RMS-Density change    ...    1.1387e-06  Tolerance :   1.0000e-06
  Last DIIS Error            ...    2.0235e-05  Tolerance :   1.0000e-06

             **** THE GBW FILE WAS UPDATED (123.gbw) ****
             **** DENSITY FILE WAS UPDATED (123.scfp) ****
             **** ENERGY FILE WAS UPDATED (123.en.tmp) ****
----------------------
UHF SPIN CONTAMINATION
----------------------

Warning: in a DFT calculation there is little theoretical justification to 
         calculate <S**2> as in Hartree-Fock theory. We will do it anyways
         but you should keep in mind that the values have only limited relevance

Expectation value of <S**2>     :     0.754297
Ideal value S*(S+1) for S=0.5   :     0.750000
Deviation                       :     0.004297

             **** THE GBW FILE WAS UPDATED (123.gbw) ****
             **** DENSITY FILE WAS UPDATED (123.scfp) ****
----------------
ORBITAL ENERGIES
----------------
                 SPIN UP ORBITALS
  NO   OCC          E(Eh)            E(eV) 
   0   1.0000     -14.839467      -403.8024 
   1   1.0000     -10.640018      -289.5296 
   2   1.0000      -1.014382       -27.6027 
   3   1.0000      -0.768998       -20.9255 
   4   1.0000      -0.578887       -15.7523 
   5   1.0000      -0.523143       -14.2354 
   6   1.0000      -0.487025       -13.2526 
   7   1.0000      -0.441474       -12.0131 
   8   1.0000      -0.375713       -10.2237 
   9   1.0000      -0.259959        -7.0738 
  10   0.0000       0.035008         0.9526 
  11   0.0000       0.057109         1.5540 
  12   0.0000       0.087843         2.3903 
  13   0.0000       0.108711         2.9582 
  14   0.0000       0.124452         3.3865 
  15   0.0000       0.129874         3.5341 
  16   0.0000       0.150908         4.1064 
  17   0.0000       0.153661         4.1813 
  18   0.0000       0.181963         4.9515 
  19   0.0000       0.197908         5.3854 
  20   0.0000       0.200755         5.4628 
  21   0.0000       0.211099         5.7443 
  22   0.0000       0.232765         6.3339 
  23   0.0000       0.237499         6.4627 
  24   0.0000       0.255491         6.9523 
  25   0.0000       0.274818         7.4782 
  26   0.0000       0.280893         7.6435 
  27   0.0000       0.312117         8.4931 
  28   0.0000       0.313043         8.5183 
  29   0.0000       0.323596         8.8055 
  30   0.0000       0.329342         8.9618 
  31   0.0000       0.337425         9.1818 
  32   0.0000       0.341897         9.3035 
  33   0.0000       0.355359         9.6698 
  34   0.0000       0.366488         9.9726 
  35   0.0000       0.368859        10.0372 
  36   0.0000       0.413628        11.2554 
  37   0.0000       0.415650        11.3104 
  38   0.0000       0.425816        11.5870 
  39   0.0000       0.426850        11.6152 
  40   0.0000       0.451630        12.2895 
  41   0.0000       0.459741        12.5102 
  42   0.0000       0.505368        13.7518 
  43   0.0000       0.528372        14.3777 
  44   0.0000       0.547588        14.9006 
  45   0.0000       0.551109        14.9965 
  46   0.0000       0.586102        15.9486 
  47   0.0000       0.618612        16.8333 
  48   0.0000       0.640432        17.4270 
  49   0.0000       0.642288        17.4775 
  50   0.0000       0.660577        17.9752 
  51   0.0000       0.742415        20.2021 
  52   0.0000       0.753293        20.4981 
  53   0.0000       0.760380        20.6910 
  54   0.0000       0.783148        21.3105 
  55   0.0000       0.796251        21.6671 
  56   0.0000       0.832838        22.6627 
  57   0.0000       0.888366        24.1737 
  58   0.0000       0.928076        25.2542 
  59   0.0000       0.940447        25.5909 
  60   0.0000       0.947130        25.7727 
  61   0.0000       0.996689        27.1213 
  62   0.0000       0.998228        27.1632 
  63   0.0000       1.054901        28.7053 
  64   0.0000       1.066169        29.0119 
  65   0.0000       1.098615        29.8948 
  66   0.0000       1.150986        31.3199 
  67   0.0000       1.181429        32.1483 
  68   0.0000       1.188058        32.3287 
  69   0.0000       1.229857        33.4661 
  70   0.0000       1.253063        34.0976 
  71   0.0000       1.256985        34.2043 
  72   0.0000       1.323917        36.0256 
  73   0.0000       1.348024        36.6816 
  74   0.0000       1.353776        36.8381 
  75   0.0000       1.407581        38.3022 
  76   0.0000       1.437596        39.1190 
  77   0.0000       1.473015        40.0828 
  78   0.0000       1.525976        41.5239 
  79   0.0000       1.565642        42.6033 
  80   0.0000       1.591801        43.3151 
  81   0.0000       1.682814        45.7917 
  82   0.0000       1.694607        46.1126 
  83   0.0000       1.789448        48.6933 
  84   0.0000       1.800169        48.9851 
  85   0.0000       1.842385        50.1338 
  86   0.0000       1.896919        51.6178 
  87   0.0000       1.946061        52.9550 
  88   0.0000       1.948507        53.0216 
  89   0.0000       2.181478        59.3610 
  90   0.0000       2.278265        61.9948 
  91   0.0000       2.411509        65.6205 
  92   0.0000       2.544868        69.2494 
  93   0.0000       2.685132        73.0662 
  94   0.0000       2.723872        74.1203 
  95   0.0000       2.780467        75.6604 
  96   0.0000       2.785897        75.8081 
  97   0.0000       2.833953        77.1158 
  98   0.0000       2.846697        77.4626 
  99   0.0000       2.950217        80.2795 
 100   0.0000       2.979838        81.0855 
 101   0.0000       3.036000        82.6138 
 102   0.0000       3.039196        82.7007 
 103   0.0000       3.081533        83.8528 
 104   0.0000       3.126616        85.0795 
 105   0.0000       3.149011        85.6890 
 106   0.0000       3.196694        86.9865 
 107   0.0000       3.220019        87.6212 
 108   0.0000       3.277913        89.1965 
 109   0.0000       3.295775        89.6826 
 110   0.0000       3.371003        91.7297 
 111   0.0000       3.376666        91.8838 
 112   0.0000       3.394032        92.3563 
 113   0.0000       3.450632        93.8965 
 114   0.0000       3.452454        93.9460 
 115   0.0000       3.479925        94.6936 
 116   0.0000       3.497376        95.1684 
 117   0.0000       3.508744        95.4778 
 118   0.0000       3.556619        96.7805 
 119   0.0000       3.575022        97.2813 
 120   0.0000       3.577312        97.3436 
 121   0.0000       3.624678        98.6325 
 122   0.0000       3.660587        99.6096 
 123   0.0000       3.669253        99.8454 
 124   0.0000       3.753445       102.1364 
 125   0.0000       3.790975       103.1577 
 126   0.0000       3.898898       106.0944 
 127   0.0000       3.905324       106.2693 
 128   0.0000       3.971006       108.0566 
 129   0.0000       3.974970       108.1644 
 130   0.0000       4.006490       109.0221 
 131   0.0000       4.042544       110.0032 
 132   0.0000       4.095744       111.4508 
 133   0.0000       4.121721       112.1577 
 134   0.0000       4.169017       113.4447 
 135   0.0000       4.223133       114.9173 
 136   0.0000       4.252740       115.7229 
 137   0.0000       4.288737       116.7025 
 138   0.0000       4.296358       116.9098 
 139   0.0000       4.323913       117.6597 
 140   0.0000       4.365248       118.7844 
 141   0.0000       4.389351       119.4403 
 142   0.0000       4.406518       119.9075 
 143   0.0000       4.444973       120.9539 
 144   0.0000       4.481377       121.9445 
 145   0.0000       4.521605       123.0391 
 146   0.0000       4.583489       124.7231 
 147   0.0000       4.591739       124.9476 
 148   0.0000       4.762073       129.5826 
 149   0.0000       4.771457       129.8379 
 150   0.0000       4.932477       134.2195 
 151   0.0000       5.027112       136.7947 
 152   0.0000       5.042467       137.2125 
 153   0.0000       5.099383       138.7613 
 154   0.0000       5.166395       140.5848 
 155   0.0000       5.174327       140.8006 
 156   0.0000       5.306938       144.4091 
 157   0.0000       5.363630       145.9518 
 158   0.0000       5.388271       146.6223 
 159   0.0000       5.419254       147.4654 
 160   0.0000       5.475904       149.0069 
 161   0.0000       5.497517       149.5950 
 162   0.0000       5.572461       151.6344 
 163   0.0000       5.628647       153.1633 
 164   0.0000       5.751666       156.5108 
 165   0.0000       5.769793       157.0041 
 166   0.0000       5.817541       158.3034 
 167   0.0000       5.897218       160.4715 
 168   0.0000       5.987836       162.9373 
 169   0.0000       6.130969       166.8322 
 170   0.0000       6.157852       167.5637 
 171   0.0000       6.315704       171.8590 
 172   0.0000       6.812733       185.3839 
 173   0.0000       6.815992       185.4726 
 174   0.0000      24.019960       653.6163 
 175   0.0000      33.334796       907.0859 

                 SPIN DOWN ORBITALS
  NO   OCC          E(Eh)            E(eV) 
   0   1.0000     -14.833757      -403.6470 
   1   1.0000     -10.640170      -289.5337 
   2   1.0000      -1.006275       -27.3821 
   3   1.0000      -0.766904       -20.8685 
   4   1.0000      -0.576170       -15.6784 
   5   1.0000      -0.518446       -14.1076 
   6   1.0000      -0.480855       -13.0847 
   7   1.0000      -0.440834       -11.9957 
   8   1.0000      -0.316269        -8.6061 
   9   0.0000       0.007234         0.1969 
  10   0.0000       0.045365         1.2344 
  11   0.0000       0.062375         1.6973 
  12   0.0000       0.088580         2.4104 
  13   0.0000       0.110995         3.0203 
  14   0.0000       0.124917         3.3992 
  15   0.0000       0.131326         3.5735 
  16   0.0000       0.153983         4.1901 
  17   0.0000       0.156300         4.2531 
  18   0.0000       0.196066         5.3352 
  19   0.0000       0.201939         5.4950 
  20   0.0000       0.204434         5.5629 
  21   0.0000       0.235750         6.4151 
  22   0.0000       0.237562         6.4644 
  23   0.0000       0.238671         6.4946 
  24   0.0000       0.255863         6.9624 
  25   0.0000       0.280443         7.6312 
  26   0.0000       0.284347         7.7375 
  27   0.0000       0.312346         8.4994 
  28   0.0000       0.318523         8.6675 
  29   0.0000       0.327405         8.9091 
  30   0.0000       0.329772         8.9736 
  31   0.0000       0.338289         9.2053 
  32   0.0000       0.345659         9.4059 
  33   0.0000       0.357414         9.7257 
  34   0.0000       0.367576        10.0023 
  35   0.0000       0.369153        10.0452 
  36   0.0000       0.415205        11.2983 
  37   0.0000       0.417789        11.3686 
  38   0.0000       0.425319        11.5735 
  39   0.0000       0.427624        11.6362 
  40   0.0000       0.452906        12.3242 
  41   0.0000       0.462987        12.5985 
  42   0.0000       0.505191        13.7469 
  43   0.0000       0.529041        14.3959 
  44   0.0000       0.549013        14.9394 
  45   0.0000       0.551209        14.9992 
  46   0.0000       0.596818        16.2402 
  47   0.0000       0.634644        17.2695 
  48   0.0000       0.640979        17.4419 
  49   0.0000       0.642946        17.4955 
  50   0.0000       0.688378        18.7317 
  51   0.0000       0.744864        20.2688 
  52   0.0000       0.755633        20.5618 
  53   0.0000       0.760207        20.6863 
  54   0.0000       0.785300        21.3691 
  55   0.0000       0.797522        21.7017 
  56   0.0000       0.848415        23.0865 
  57   0.0000       0.891730        24.2652 
  58   0.0000       0.940092        25.5812 
  59   0.0000       0.944129        25.6911 
  60   0.0000       0.966005        26.2863 
  61   0.0000       0.998981        27.1836 
  62   0.0000       1.016896        27.6712 
  63   0.0000       1.074356        29.2347 
  64   0.0000       1.099411        29.9165 
  65   0.0000       1.104559        30.0566 
  66   0.0000       1.167143        31.7596 
  67   0.0000       1.183629        32.2082 
  68   0.0000       1.189940        32.3799 
  69   0.0000       1.233756        33.5722 
  70   0.0000       1.257378        34.2150 
  71   0.0000       1.261316        34.3222 
  72   0.0000       1.329525        36.1782 
  73   0.0000       1.350033        36.7363 
  74   0.0000       1.356950        36.9245 
  75   0.0000       1.407466        38.2991 
  76   0.0000       1.449902        39.4539 
  77   0.0000       1.481144        40.3040 
  78   0.0000       1.528716        41.5985 
  79   0.0000       1.566111        42.6161 
  80   0.0000       1.592432        43.3323 
  81   0.0000       1.682885        45.7936 
  82   0.0000       1.696649        46.1682 
  83   0.0000       1.796271        48.8790 
  84   0.0000       1.802297        49.0430 
  85   0.0000       1.845431        50.2167 
  86   0.0000       1.898618        51.6640 
  87   0.0000       1.947702        52.9997 
  88   0.0000       1.950722        53.0818 
  89   0.0000       2.184669        59.4479 
  90   0.0000       2.279188        62.0199 
  91   0.0000       2.412377        65.6441 
  92   0.0000       2.554793        69.5194 
  93   0.0000       2.691566        73.2412 
  94   0.0000       2.773046        75.4584 
  95   0.0000       2.787630        75.8553 
  96   0.0000       2.828508        76.9676 
  97   0.0000       2.840528        77.2947 
  98   0.0000       2.848911        77.5228 
  99   0.0000       2.951950        80.3266 
 100   0.0000       2.980020        81.0905 
 101   0.0000       3.037434        82.6528 
 102   0.0000       3.040942        82.7482 
 103   0.0000       3.089130        84.0595 
 104   0.0000       3.127329        85.0989 
 105   0.0000       3.157249        85.9131 
 106   0.0000       3.204761        87.2060 
 107   0.0000       3.223155        87.7065 
 108   0.0000       3.282435        89.3196 
 109   0.0000       3.308359        90.0250 
 110   0.0000       3.390064        92.2483 
 111   0.0000       3.434109        93.4469 
 112   0.0000       3.446946        93.7962 
 113   0.0000       3.468717        94.3886 
 114   0.0000       3.476442        94.5988 
 115   0.0000       3.484533        94.8190 
 116   0.0000       3.513720        95.6132 
 117   0.0000       3.541192        96.3607 
 118   0.0000       3.565831        97.0312 
 119   0.0000       3.594954        97.8237 
 120   0.0000       3.599881        97.9578 
 121   0.0000       3.645339        99.1947 
 122   0.0000       3.672882        99.9442 
 123   0.0000       3.677072       100.0582 
 124   0.0000       3.754824       102.1740 
 125   0.0000       3.791914       103.1832 
 126   0.0000       3.901276       106.1591 
 127   0.0000       3.907714       106.3343 
 128   0.0000       3.985938       108.4629 
 129   0.0000       4.053558       110.3029 
 130   0.0000       4.058869       110.4474 
 131   0.0000       4.077119       110.9441 
 132   0.0000       4.100866       111.5902 
 133   0.0000       4.141141       112.6862 
 134   0.0000       4.177220       113.6679 
 135   0.0000       4.231259       115.1384 
 136   0.0000       4.262977       116.0015 
 137   0.0000       4.293493       116.8319 
 138   0.0000       4.297621       116.9442 
 139   0.0000       4.328130       117.7744 
 140   0.0000       4.374167       119.0271 
 141   0.0000       4.407139       119.9244 
 142   0.0000       4.426194       120.4429 
 143   0.0000       4.453098       121.1750 
 144   0.0000       4.482183       121.9664 
 145   0.0000       4.527185       123.1910 
 146   0.0000       4.585020       124.7647 
 147   0.0000       4.592703       124.9738 
 148   0.0000       4.765437       129.6741 
 149   0.0000       4.778045       130.0172 
 150   0.0000       4.936766       134.3362 
 151   0.0000       5.027511       136.8055 
 152   0.0000       5.045316       137.2900 
 153   0.0000       5.106775       138.9624 
 154   0.0000       5.168702       140.6475 
 155   0.0000       5.180822       140.9773 
 156   0.0000       5.308035       144.4390 
 157   0.0000       5.364695       145.9808 
 158   0.0000       5.393625       146.7680 
 159   0.0000       5.421837       147.5357 
 160   0.0000       5.477412       149.0480 
 161   0.0000       5.498018       149.6087 
 162   0.0000       5.578571       151.8006 
 163   0.0000       5.630316       153.2087 
 164   0.0000       5.753303       156.5553 
 165   0.0000       5.770085       157.0120 
 166   0.0000       5.820502       158.3839 
 167   0.0000       5.899646       160.5375 
 168   0.0000       5.990421       163.0076 
 169   0.0000       6.136232       166.9754 
 170   0.0000       6.161340       167.6586 
 171   0.0000       6.319583       171.9646 
 172   0.0000       6.815487       185.4588 
 173   0.0000       6.818054       185.5287 
 174   0.0000      24.019840       653.6131 
 175   0.0000      33.339797       907.2220 

                    ********************************
                    * MULLIKEN POPULATION ANALYSIS *
                    ********************************

--------------------------------------------
MULLIKEN ATOMIC CHARGES AND SPIN POPULATIONS
--------------------------------------------
   0 H :    0.097544    0.010429
   1 H :    0.093083   -0.006473
   2 C :   -0.140422    0.002363
   3 H :    0.139890   -0.016343
   4 H :    0.091224   -0.004283
   5 H :   -0.048200    0.913649
   6 H :    0.141424   -0.017421
   7 N :   -0.374542    0.118080
Sum of atomic charges         :    0.0000000
Sum of atomic spin populations:    1.0000000

-----------------------------------------------------
MULLIKEN REDUCED ORBITAL CHARGES AND SPIN POPULATIONS
-----------------------------------------------------
CHARGE
  0 H s       :     0.859362  s :     0.859362
      pz      :     0.019007  p :     0.041209
      px      :     0.007552
      py      :     0.014649
      dz2     :     0.000602  d :     0.001886
      dxz     :     0.000135
      dyz     :     0.000349
      dx2y2   :     0.000261
      dxy     :     0.000537
  1 H s       :     0.868219  s :     0.868219
      pz      :     0.013134  p :     0.036767
      px      :     0.013247
      py      :     0.010386
      dz2     :     0.000310  d :     0.001930
      dxz     :     0.000409
      dyz     :     0.000284
      dx2y2   :     0.000606
      dxy     :     0.000322
  2 C s       :     3.172680  s :     3.172680
      pz      :     0.741419  p :     2.859655
      px      :     1.084996
      py      :     1.033241
      dz2     :     0.016538  d :     0.101450
      dxz     :     0.007342
      dyz     :     0.044026
      dx2y2   :     0.011185
      dxy     :     0.022359
      f0      :     0.002322  f :     0.006636
      f+1     :     0.001093
      f-1     :     0.002034
      f+2     :     0.000339
      f-2     :     0.000188
      f+3     :     0.000015
      f-3     :     0.000644
  3 H s       :     0.775710  s :     0.775710
      pz      :     0.018335  p :     0.079610
      px      :     0.021651
      py      :     0.039624
      dz2     :     0.000618  d :     0.004790
      dxz     :     0.001144
      dyz     :     0.000346
      dx2y2   :     0.001278
      dxy     :     0.001406
  4 H s       :     0.871936  s :     0.871936
      pz      :     0.012671  p :     0.034911
      px      :     0.013924
      py      :     0.008316
      dz2     :     0.000320  d :     0.001930
      dxz     :     0.000464
      dyz     :     0.000223
      dx2y2   :     0.000541
      dxy     :     0.000382
  5 H s       :     1.023554  s :     1.023554
      pz      :     0.004798  p :     0.024395
      px      :     0.000538
      py      :     0.019059
      dz2     :     0.000016  d :     0.000250
      dxz     :     0.000002
      dyz     :     0.000113
      dx2y2   :     0.000104
      dxy     :     0.000014
  6 H s       :     0.773779  s :     0.773779
      pz      :     0.018163  p :     0.079993
      px      :     0.021217
      py      :     0.040612
      dz2     :     0.000615  d :     0.004804
      dxz     :     0.001076
      dyz     :     0.000406
      dx2y2   :     0.001367
      dxy     :     0.001341
  7 N s       :     3.541186  s :     3.541186
      pz      :     1.159064  p :     3.803649
      px      :     1.114285
      py      :     1.530299
      dz2     :     0.010470  d :     0.027971
      dxz     :     0.001557
      dyz     :     0.007970
      dx2y2   :     0.001519
      dxy     :     0.006455
      f0      :     0.000695  f :     0.001736
      f+1     :     0.000310
      f-1     :     0.000379
      f+2     :     0.000034
      f-2     :     0.000087
      f+3     :     0.000011
      f-3     :     0.000221

SPIN
  0 H s       :     0.010247  s :     0.010247
      pz      :    -0.000144  p :     0.000174
      px      :     0.000298
      py      :     0.000020
      dz2     :     0.000007  d :     0.000007
      dxz     :    -0.000001
      dyz     :    -0.000004
      dx2y2   :     0.000005
      dxy     :     0.000001
  1 H s       :    -0.005836  s :    -0.005836
      pz      :    -0.003191  p :    -0.000632
      px      :    -0.000199
      py      :     0.002758
      dz2     :    -0.000001  d :    -0.000005
      dxz     :    -0.000002
      dyz     :    -0.000001
      dx2y2   :    -0.000002
      dxy     :     0.000001
  2 C s       :     0.000950  s :     0.000950
      pz      :    -0.003494  p :     0.001639
      px      :    -0.000951
      py      :     0.006084
      dz2     :     0.002859  d :    -0.000367
      dxz     :    -0.000191
      dyz     :    -0.001395
      dx2y2   :    -0.001471
      dxy     :    -0.000169
      f0      :     0.000010  f :     0.000142
      f+1     :    -0.000007
      f-1     :     0.000122
      f+2     :     0.000018
      f-2     :    -0.000000
      f+3     :    -0.000000
      f-3     :    -0.000000
  3 H s       :    -0.010512  s :    -0.010512
      pz      :    -0.000866  p :    -0.005990
      px      :    -0.000759
      py      :    -0.004365
      dz2     :     0.000027  d :     0.000158
      dxz     :     0.000018
      dyz     :    -0.000002
      dx2y2   :     0.000002
      dxy     :     0.000112
  4 H s       :    -0.003398  s :    -0.003398
      pz      :    -0.002714  p :    -0.000881
      px      :    -0.000115
      py      :     0.001948
      dz2     :    -0.000001  d :    -0.000004
      dxz     :    -0.000002
      dyz     :    -0.000001
      dx2y2   :    -0.000002
      dxy     :     0.000002
  5 H s       :     0.892937  s :     0.892937
      pz      :     0.004350  p :     0.020710
      px      :     0.000087
      py      :     0.016274
      dz2     :     0.000000  d :     0.000003
      dxz     :     0.000000
      dyz     :     0.000002
      dx2y2   :    -0.000000
      dxy     :     0.000001
  6 H s       :    -0.011694  s :    -0.011694
      pz      :    -0.000861  p :    -0.005875
      px      :    -0.000964
      py      :    -0.004051
      dz2     :     0.000026  d :     0.000147
      dxz     :     0.000018
      dyz     :    -0.000006
      dx2y2   :     0.000015
      dxy     :     0.000093
  7 N s       :     0.059582  s :     0.059582
      pz      :     0.012682  p :     0.055169
      px      :     0.004488
      py      :     0.037998
      dz2     :     0.000758  d :     0.003377
      dxz     :    -0.000537
      dyz     :     0.002171
      dx2y2   :     0.001181
      dxy     :    -0.000196
      f0      :    -0.000019  f :    -0.000049
      f+1     :    -0.000001
      f-1     :    -0.000007
      f+2     :     0.000021
      f-2     :    -0.000021
      f+3     :    -0.000002
      f-3     :    -0.000021


                     *******************************
                     * LOEWDIN POPULATION ANALYSIS *
                     *******************************

-------------------------------------------
LOEWDIN ATOMIC CHARGES AND SPIN POPULATIONS
-------------------------------------------
   0 H :   -0.017993    0.003714
   1 H :   -0.015959    0.004589
   2 C :    0.044205    0.013158
   3 H :   -0.104371    0.010662
   4 H :   -0.014960    0.003636
   5 H :    0.032360    0.769653
   6 H :   -0.103370    0.010067
   7 N :    0.180089    0.184522

----------------------------------------------------
LOEWDIN REDUCED ORBITAL CHARGES AND SPIN POPULATIONS
----------------------------------------------------
CHARGE
  0 H s       :     0.723695  s :     0.723695
      pz      :     0.072070  p :     0.266978
      px      :     0.076085
      py      :     0.118823
      dz2     :     0.005065  d :     0.027320
      dxz     :     0.002019
      dyz     :     0.007789
      dx2y2   :     0.005222
      dxy     :     0.007225
  1 H s       :     0.716138  s :     0.716138
      pz      :     0.062119  p :     0.271648
      px      :     0.111818
      py      :     0.097711
      dz2     :     0.003518  d :     0.028173
      dxz     :     0.005196
      dyz     :     0.003325
      dx2y2   :     0.008746
      dxy     :     0.007389
  2 C s       :     2.661976  s :     2.661976
      pz      :     0.791612  p :     2.650232
      px      :     0.934274
      py      :     0.924347
      dz2     :     0.160238  d :     0.598151
      dxz     :     0.117226
      dyz     :     0.210905
      dx2y2   :     0.041150
      dxy     :     0.068631
      f0      :     0.013013  f :     0.045437
      f+1     :     0.008737
      f-1     :     0.010325
      f+2     :     0.004902
      f-2     :     0.003300
      f+3     :     0.000325
      f-3     :     0.004836
  3 H s       :     0.655902  s :     0.655902
      pz      :     0.099647  p :     0.390406
      px      :     0.137979
      py      :     0.152780
      dz2     :     0.008153  d :     0.058063
      dxz     :     0.013295
      dyz     :     0.004701
      dx2y2   :     0.014507
      dxy     :     0.017407
  4 H s       :     0.716153  s :     0.716153
      pz      :     0.061846  p :     0.270628
      px      :     0.116999
      py      :     0.091783
      dz2     :     0.003567  d :     0.028179
      dxz     :     0.005997
      dyz     :     0.002577
      dx2y2   :     0.008327
      dxy     :     0.007711
  5 H s       :     0.858592  s :     0.858592
      pz      :     0.024235  p :     0.107587
      px      :     0.004730
      py      :     0.078621
      dz2     :     0.000073  d :     0.001462
      dxz     :     0.000011
      dyz     :     0.000703
      dx2y2   :     0.000646
      dxy     :     0.000028
  6 H s       :     0.655824  s :     0.655824
      pz      :     0.099139  p :     0.389501
      px      :     0.133376
      py      :     0.156986
      dz2     :     0.008047  d :     0.058045
      dxz     :     0.012538
      dyz     :     0.005402
      dx2y2   :     0.015554
      dxy     :     0.016503
  7 N s       :     2.906287  s :     2.906287
      pz      :     1.079619  p :     3.438871
      px      :     1.074451
      py      :     1.284801
      dz2     :     0.113095  d :     0.464038
      dxz     :     0.125774
      dyz     :     0.137583
      dx2y2   :     0.040620
      dxy     :     0.046966
      f0      :     0.002697  f :     0.010715
      f+1     :     0.002195
      f-1     :     0.001858
      f+2     :     0.000595
      f-2     :     0.001509
      f+3     :     0.000192
      f-3     :     0.001669

SPIN
  0 H s       :     0.001462  s :     0.001462
      pz      :     0.002082  p :     0.002221
      px      :    -0.000011
      py      :     0.000150
      dz2     :     0.000036  d :     0.000031
      dxz     :    -0.000002
      dyz     :    -0.000017
      dx2y2   :     0.000015
      dxy     :    -0.000001
  1 H s       :     0.000576  s :     0.000576
      pz      :     0.001761  p :     0.004076
      px      :     0.000014
      py      :     0.002301
      dz2     :    -0.000008  d :    -0.000063
      dxz     :    -0.000022
      dyz     :    -0.000015
      dx2y2   :    -0.000022
      dxy     :     0.000003
  2 C s       :     0.004696  s :     0.004696
      pz      :    -0.000242  p :    -0.000353
      px      :    -0.000267
      py      :     0.000157
      dz2     :     0.002806  d :     0.007515
      dxz     :    -0.000227
      dyz     :     0.003836
      dx2y2   :     0.001120
      dxy     :    -0.000019
      f0      :     0.000455  f :     0.001299
      f+1     :     0.000042
      f-1     :     0.000702
      f+2     :     0.000100
      f-2     :     0.000001
      f+3     :     0.000000
      f-3     :    -0.000001
  3 H s       :    -0.000394  s :    -0.000394
      pz      :     0.001268  p :     0.008487
      px      :     0.000861
      py      :     0.006358
      dz2     :     0.000438  d :     0.002570
      dxz     :     0.000310
      dyz     :     0.000058
      dx2y2   :     0.000251
      dxy     :     0.001512
  4 H s       :     0.000473  s :     0.000473
      pz      :     0.001349  p :     0.003222
      px      :     0.000047
      py      :     0.001827
      dz2     :    -0.000008  d :    -0.000060
      dxz     :    -0.000024
      dyz     :    -0.000009
      dx2y2   :    -0.000023
      dxy     :     0.000004
  5 H s       :     0.723500  s :     0.723500
      pz      :     0.010905  p :     0.045856
      px      :    -0.000016
      py      :     0.034968
      dz2     :     0.000007  d :     0.000297
      dxz     :    -0.000000
      dyz     :     0.000151
      dx2y2   :     0.000140
      dxy     :    -0.000001
  6 H s       :    -0.000538  s :    -0.000538
      pz      :     0.001201  p :     0.008044
      px      :     0.000488
      py      :     0.006355
      dz2     :     0.000437  d :     0.002561
      dxz     :     0.000334
      dyz     :     0.000038
      dx2y2   :     0.000461
      dxy     :     0.001291
  7 N s       :     0.036486  s :     0.036486
      pz      :     0.019708  p :     0.092789
      px      :     0.003909
      py      :     0.069171
      dz2     :     0.003915  d :     0.055192
      dxz     :    -0.000369
      dyz     :     0.024369
      dx2y2   :     0.027818
      dxy     :    -0.000540
      f0      :     0.000060  f :     0.000055
      f+1     :    -0.000005
      f-1     :     0.000003
      f+2     :     0.000024
      f-2     :    -0.000033
      f+3     :     0.000008
      f-3     :    -0.000001


                      *****************************
                      * MAYER POPULATION ANALYSIS *
                      *****************************

  NA   - Mulliken gross atomic population
  ZA   - Total nuclear charge
  QA   - Mulliken gross atomic charge
  VA   - Mayer's total valence
  BVA  - Mayer's bonded valence
  FA   - Mayer's free valence

  ATOM       NA         ZA         QA         VA         BVA        FA
  0 H      0.9025     1.0000     0.0975     1.0441     1.0442    -0.0000
  1 H      0.9069     1.0000     0.0931     1.0338     1.0338     0.0000
  2 C      6.1404     6.0000    -0.1404     3.8635     3.8631     0.0004
  3 H      0.8601     1.0000     0.1399     1.0227     1.0227     0.0000
  4 H      0.9088     1.0000     0.0912     1.0304     1.0303     0.0000
  5 H      1.0482     1.0000    -0.0482     1.0216     0.1917     0.8299
  6 H      0.8586     1.0000     0.1414     1.0214     1.0214    -0.0000
  7 N      7.3745     7.0000    -0.3745     3.2456     3.1791     0.0665

  Mayer bond orders larger than 0.100000
B(  0-H ,  2-C ) :   1.0186 B(  1-H ,  2-C ) :   1.0110 B(  2-C ,  4-H ) :   1.0090 
B(  2-C ,  7-N ) :   0.8106 B(  3-H ,  7-N ) :   1.0407 B(  5-H ,  7-N ) :   0.2501 
B(  6-H ,  7-N ) :   1.0412 

-------
TIMINGS
-------

Total SCF time: 0 days 0 hours 0 min 2 sec 

Total time                  ....       2.716 sec
Sum of individual times     ....       2.575 sec  ( 94.8%)

Fock matrix formation       ....       2.143 sec  ( 78.9%)
  XC integration            ....       0.567 sec  ( 26.4% of F)
    Basis function eval.    ....       0.070 sec  ( 12.3% of XC)
    Density eval.           ....       0.091 sec  ( 16.1% of XC)
    XC-Functional eval.     ....       0.018 sec  (  3.2% of XC)
    XC-Potential eval.      ....       0.201 sec  ( 35.4% of XC)
Diagonalization             ....       0.106 sec  (  3.9%)
Density matrix formation    ....       0.017 sec  (  0.6%)
Population analysis         ....       0.010 sec  (  0.4%)
Initial guess               ....       0.102 sec  (  3.7%)
Orbital Transformation      ....       0.000 sec  (  0.0%)
Orbital Orthonormalization  ....       0.000 sec  (  0.0%)
DIIS solution               ....       0.036 sec  (  1.3%)
Grid generation             ....       0.163 sec  (  6.0%)


           ************************************************************
           *        Program running with 24 parallel MPI-processes    *
           *              working on a common directory               *
           ************************************************************

------------------------------------------------------------------------------
                                ORCA  MP2 
------------------------------------------------------------------------------

Freezing NCore=4 chemical core electrons

-------------
RI-MP2 ENERGY
-------------
Dimension of the basis                    ...  176
Memory devoted to MP2                     ... 5000 MB   
Data format for buffers                   ... DOUBLE
Compression type for matrix containers    ... UNCOMPRESSED
Overall scaling of the MP2 energy         ...   2.700e-01
Calculating two index integrals           ... done (    0.002 sec)
Cholesky decomposition of V**-1           ... done (    0.017 sec)

-----------------
RI-TRANSFORMATION (AUX index driven)
-----------------

Dimension of the orbital-basis         ... 176
Dimension of the aux-basis             ... 418
Transformation of internal/external MOs...    2-   9 to   10- 175
Number Format for Storage              ... Double (8 Byte)
Integral mode                          ... Direct

First Phase: integral generation and transformation of MO indices
  Aux angular momentum 0               ... done (    0.002 sec)
  Aux angular momentum 1               ... done (    0.003 sec)
  Aux angular momentum 2               ... done (    0.004 sec)
  Aux angular momentum 3               ... done (    0.003 sec)
  Aux angular momentum 4               ... done (    0.004 sec)
Closing buffer VIA ( 0.00 GB; CompressionRatio= 1.00)
  Phase 1 completed in     0.086 sec
Second Phase: sorting and transformation of aux index

IA-Transformation
Memory available                       ... 4996 MB 
Max. # MO pairs treated in a batch     ... 1    
# of internal orbitals                 ... 8
# batches for internal orbitals        ... 1
Closing buffer IAV ( 0.00 GB; CompressionRatio= 1.00)
(ia|v) transformation done in     0.005 sec

  Phase 2 completed in     0.010 sec
RI-Integral transformation completed in     0.097 sec

-----------------
RI-TRANSFORMATION (AUX index driven)
-----------------

Dimension of the orbital-basis         ... 176
Dimension of the aux-basis             ... 418
Transformation of internal/external MOs...    2-   8 to    9- 175
Number Format for Storage              ... Double (8 Byte)
Integral mode                          ... Direct

First Phase: integral generation and transformation of MO indices
  Aux angular momentum 0               ... done (    0.002 sec)
  Aux angular momentum 1               ... done (    0.003 sec)
  Aux angular momentum 2               ... done (    0.004 sec)
  Aux angular momentum 3               ... done (    0.003 sec)
  Aux angular momentum 4               ... done (    0.004 sec)
Closing buffer VIA ( 0.00 GB; CompressionRatio= 1.00)
  Phase 1 completed in     0.085 sec
Second Phase: sorting and transformation of aux index

IA-Transformation
Memory available                       ... 4996 MB 
Max. # MO pairs treated in a batch     ... 1    
# of internal orbitals                 ... 7
# batches for internal orbitals        ... 1
Closing buffer IAV ( 0.00 GB; CompressionRatio= 1.00)
(ia|v) transformation done in     0.004 sec

  Phase 2 completed in     0.009 sec
RI-Integral transformation completed in     0.095 sec
Opening buffers                              ... done

Starting loop over batches of integrals:

Operator 0  - window                       ... (  2-  9)x( 10-175)
Operator 0  - Memory available             ...  5000 MB
Operator 0  - Memory needed per MO         ...   0.5 MB
Operator 0  - Number of orbitals per batch ... 1
Operator 0  - Number of batches            ... 1

OPERATOR  0   PASS   0:  MOs     2 ...    2 +    3 ...    3 +    4 ...    4 +    5 ...    5
                            +    6 ...    6 +    7 ...    7 +    8 ...    8 +    9 ...    9
  Reading integrals       ... ok

Operator 1  - window                       ... (  2-  8)x(  9-175)
Operator 1  - Memory available             ...  5000 MB
Operator 1  - Memory needed per MO         ...   0.5 MB
Operator 1  - Number of orbitals per batch ... 1
Operator 1  - Number of batches            ... 1

OPERATOR  1   PASS   0:  MOs     2 ...    2 +    3 ...    3 +    4 ...    4 +    5 ...    5
                            +    6 ...    6 +    7 ...    7 +    8 ...    8
  Reading integrals       ... ok
Time spent in pair loops =     0.015 sec
Deleting buffer (Ka|jb)[aa] ...done
Deleting buffer (Ka|jb)[ab] ...done
Deleting buffer (Ka|jb)[ba] ...done
Deleting buffer (Ka|jb)[bb] ...done

Correlation energy components}
 E2 and T2 for alpha/alpha pairs :     -0.015084447 Eh      0.000000000
 E2 and T2 for beta/beta   pairs :     -0.014762777 Eh      0.000000000
 E2 and T2 for alpha/beta  pairs :     -0.104047543 Eh      0.000000000


-----------------------------------------------
 RI-MP2 CORRELATION ENERGY:     -0.133894767 Eh
-----------------------------------------------


-------
TIMINGS
-------

Total time                :    0.263 sec
Integral trafo            :    0.222 sec ( 84.5%)
I/O of integrals          :    0.001 sec (  0.3%)
K(i,j) Operators          :    0.006 sec (  2.3%)
T(i,j) pair energies      :    0.001 sec (  0.2%)
V-calculation             :    0.002 sec (  0.9%)
V**(-1/2)                 :    0.017 sec (  6.6%)
Gamma(ia|P)               :    0.000 sec (  0.0%)
Gamma-Trafo               :    0.000 sec (  0.0%)
D(virtual)                :    0.000 sec (  0.0%)
D(internal)               :    0.000 sec (  0.0%)
W(virtual)                :    0.000 sec (  0.0%)
W(internal)               :    0.000 sec (  0.0%)
L(virtual)                :    0.000 sec (  0.0%)
L(internal)               :    0.000 sec (  0.0%)
G(D)                      :    0.000 sec (  0.0%)
G(Z)                      :    0.000 sec (  0.0%)
Z-Vector Solution         :    0.000 sec (  0.0%)
Z-Vector Solution         :    0.000 sec (  0.0%)
3-Index Derivative 
+ Separable RIJ part      :    0.000 sec (  0.0%)
2-Index Derivative 
+ Separable RIJ part      :    0.000 sec (  0.0%)
Separable Gradient (X)    :    0.000 sec (  0.0%)


---------------------------------------
MP2 TOTAL ENERGY:      -96.310422488 Eh
---------------------------------------


-------------------------------------------------------------------------------
                          DFT DISPERSION CORRECTION                            
                                                                               
                              DFTD3 V3.1  Rev 1                                
                          USING Becke-Johnson damping                          
-------------------------------------------------------------------------------
The B2PLYP functional is recognized
Active option DFTDOPT                   ...         4   

molecular C6(AA) [au] = 386.174205 


            DFT-D V3
 parameters
 s6 scaling factor         :     0.6400 
 a1 scaling factor         :     0.3065 
 s8 scaling factor         :     0.9147 
 a2 scaling factor         :     5.0570 
 ad hoc parameters k1-k3   :    16.0000     1.3333    -4.0000 

 Edisp/kcal,au: -1.495203731169  -0.002382758561 
 E6   /kcal   :  -0.932922883 
 E8   /kcal   :  -0.562280848 
 % E8         :  37.605634363 

-------------------------   ----------------
Dispersion correction           -0.002382759
-------------------------   ----------------


-------------------------   --------------------
FINAL SINGLE POINT ENERGY       -96.312805246657
-------------------------   --------------------


                            ***************************************
                            *     ORCA property calculations      *
                            ***************************************


  WARNING: The energy has been calculated at the MP2 level but the densities
           used in the property calculations are still SCF densities
           MP2 response densities have not been calculated 
           use %mp2 Density relaxed end
           or  %mp2 Density unrelaxed end

                                    ---------------------
                                    Active property flags
                                    ---------------------
   (+) Dipole Moment


------------------------------------------------------------------------------
                       ORCA ELECTRIC PROPERTIES CALCULATION
------------------------------------------------------------------------------

Dipole Moment Calculation                       ... on
Quadrupole Moment Calculation                   ... off
Polarizability Calculation                      ... off
GBWName                                         ... 123.gbw
Electron density file                           ... 123.scfp
The origin for moment calculation is the CENTER OF MASS  = ( 0.001931, -0.194470 -0.006678)

-------------
DIPOLE MOMENT
-------------
                                X             Y             Z
Electronic contribution:     -0.00836      -1.64127       0.47823
Nuclear contribution   :     -0.00825       0.82489      -0.08847
                        -----------------------------------------
Total Dipole Moment    :     -0.01662      -0.81639       0.38976
                        -----------------------------------------
Magnitude (a.u.)       :      0.90481
Magnitude (Debye)      :      2.29985



--------------------
Rotational spectrum 
--------------------
 
Rotational constants in cm-1:     2.000356     0.660608     0.601270 
Rotational constants in MHz : 59969.149740 19804.516397 18025.616086 

 Dipole components along the rotational axes: 
x,y,z [a.u.] :     0.389767    -0.816388     0.016613 
x,y,z [Debye]:     0.990709    -2.075093     0.042226 

 

Timings for individual modules:

Sum of individual times         ...        4.292 sec (=   0.072 min)
GTO integral calculation        ...        0.532 sec (=   0.009 min)  12.4 %
SCF iterations                  ...        3.054 sec (=   0.051 min)  71.2 %
MP2 module                      ...        0.706 sec (=   0.012 min)  16.5 %
                             ****ORCA TERMINATED NORMALLY****
TOTAL RUN TIME: 0 days 0 hours 0 minutes 4 seconds 769 msec
