
                                 *****************
                                 * O   R   C   A *
                                 *****************

           --- An Ab Initio, DFT and Semiempirical electronic structure package ---

                  #######################################################
                  #                        -***-                        #
                  #          Department of theory and spectroscopy      #
                  #               Directorship: Frank Neese             #
                  #        Max Planck Institute fuer Kohlenforschung    #
                  #                Kaiser Wilhelm Platz 1               #
                  #                 D-45470 Muelheim/Ruhr               #
                  #                      Germany                        #
                  #                                                     #
                  #                  All rights reserved                #
                  #                        -***-                        #
                  #######################################################


                         Program Version 4.2.0 -  RELEASE  -


 With contributions from (in alphabetic order):
   Daniel Aravena         : Magnetic Suceptibility
   Michael Atanasov       : Ab Initio Ligand Field Theory (pilot matlab implementation)
   Alexander A. Auer      : GIAO ZORA, VPT2
   Ute Becker             : Parallelization
   Giovanni Bistoni       : ED, misc. LED, open-shell LED, HFLED
   Martin Brehm           : Molecular dynamics
   Dmytro Bykov           : SCF Hessian
   Vijay G. Chilkuri      : MRCI spin determinant printing, contributions to CSF-ICE
   Dipayan Datta          : RHF DLPNO-CCSD density
   Achintya Kumar Dutta   : EOM-CC, STEOM-CC
   Dmitry Ganyushin       : Spin-Orbit,Spin-Spin,Magnetic field MRCI
   Miquel Garcia          : C-PCM Hessian, Gaussian charge scheme
   Yang Guo               : DLPNO-NEVPT2, CIM, IAO-localization
   Andreas Hansen         : Spin unrestricted coupled pair/coupled cluster methods
   Benjamin Helmich-Paris : CASSCF linear response (MC-RPA)
   Lee Huntington         : MR-EOM, pCC
   Robert Izsak           : Overlap fitted RIJCOSX, COSX-SCS-MP3, EOM
   Christian Kollmar      : KDIIS, OOCD, Brueckner-CCSD(T), CCSD density
   Simone Kossmann        : Meta GGA functionals, TD-DFT gradient, OOMP2, MP2 Hessian
   Martin Krupicka        : AUTO-CI
   Lucas Lang             : DCDCAS
   Dagmar Lenk            : GEPOL surface, SMD
   Dimitrios Liakos       : Extrapolation schemes; Compound Job, initial MDCI parallelization
   Dimitrios Manganas     : Further ROCIS development; embedding schemes
   Dimitrios Pantazis     : SARC Basis sets
   Taras Petrenko         : DFT Hessian,TD-DFT gradient, ASA, ECA, R-Raman, ABS, FL, XAS/XES, NRVS
   Peter Pinski           : DLPNO-MP2, DLPNO-MP2 Gradient
   Christoph Reimann      : Effective Core Potentials
   Marius Retegan         : Local ZFS, SOC
   Christoph Riplinger    : Optimizer, TS searches, QM/MM, DLPNO-CCSD(T), (RO)-DLPNO pert. Triples
   Tobias Risthaus        : Range-separated hybrids, TD-DFT gradient, RPA, STAB
   Michael Roemelt        : Original ROCIS implementation
   Masaaki Saitow         : Open-shell DLPNO-CCSD energy and density
   Barbara Sandhoefer     : DKH picture change effects
   Avijit Sen             : IP-ROCIS
   Kantharuban Sivalingam : CASSCF convergence, NEVPT2, FIC-MRCI
   Bernardo de Souza      : ESD, SOC TD-DFT
   Georgi Stoychev        : AutoAux, RI-MP2 NMR
   Willem Van den Heuvel  : Paramagnetic NMR
   Boris Wezisla          : Elementary symmetry handling
   Frank Wennmohs         : Technical directorship


 We gratefully acknowledge several colleagues who have allowed us to
 interface, adapt or use parts of their codes:
   Stefan Grimme, W. Hujo, H. Kruse,             : VdW corrections, initial TS optimization,
                  C. Bannwarth                     DFT functionals, gCP, sTDA/sTD-DF
   Ed Valeev, F. Pavosevic, A. Kumar             : LibInt (2-el integral package), F12 methods
   Garnet Chan, S. Sharma, J. Yang, R. Olivares  : DMRG
   Ulf Ekstrom                                   : XCFun DFT Library
   Mihaly Kallay                                 : mrcc  (arbitrary order and MRCC methods)
   Andreas Klamt, Michael Diedenhofen            : otool_cosmo (COSMO solvation model)
   Jiri Pittner, Ondrej Demel                    : Mk-CCSD
   Frank Weinhold                                : gennbo (NPA and NBO analysis)
   Christopher J. Cramer and Donald G. Truhlar   : smd solvation model
   Lars Goerigk                                  : TD-DFT with DH, B97 family of functionals
   V. Asgeirsson, H. Jonsson                     : NEB implementation
   FAccTs GmbH                                   : IRC, NEB, NEB-TS, Multilevel, MM, QM/MM, CI optimization
   S Lehtola, MJT Oliveira, MAL Marques          : LibXC Library


 Your calculation uses the libint2 library for the computation of 2-el integrals
 For citations please refer to: http://libint.valeyev.net

 Your ORCA version has been built with support for libXC version: 4.2.3
 For citations please refer to: https://tddft.org/programs/libxc/

 This ORCA versions uses:
   CBLAS   interface :  Fast vector & matrix operations
   LAPACKE interface :  Fast linear algebra routines
   SCALAPACK package :  Parallel linear algebra routines


Your calculation utilizes the atom-pairwise dispersion correction
with the Becke-Johnson damping scheme (D3BJ)
Cite in your paper:
S.Grimme, S.Ehrlich, L.Goerigk, J Comput Chem, (2011), 32, 1456–1465 
S.Grimme, J.Antony, S.Ehrlich and H.Krieg, J.Chem.Phys., 132, (2010), 154104 
   

----- Orbital basis set information -----
Your calculation utilizes the basis: def2-TZVPPD
   F. Weigend and R. Ahlrichs, Phys. Chem. Chem. Phys. 7, 3297 (2005).
   D. Rappoport and F. Furche, J. Chem. Phys. 133 134105 (2010).

----- AuxC basis set information -----
Your calculation utilizes the auxiliary basis: def2-TZVPPD/C
   A. Hellweg, C. Hattig, S. Hofener and W. Klopper, Theor. Chem. Acc. 117, 587 (2007).

----- AuxJK basis set information -----
Your calculation utilizes the auxiliary basis: def2/JK
   H-Ba, Hf-Rn: F. Weigend, J. Comput. Chem. 29, 167 (2008).

================================================================================
                                        WARNINGS
                       Please study these warnings very carefully!
================================================================================


WARNING: No MP2 level density has been requested!
         To caclulate MP2 level properties use
         %mp2 Density relaxed end
         or
         %mp2 Density unrelaxed end
         Otherwise for double-hybrid DFT only the energy is correct!

WARNING: The frozen-core approximation is turned on by default for 
         the MP2 part of double-hybrid DFT.

INFO   : the flag for use of LIBINT has been found!

================================================================================
                                       INPUT FILE
================================================================================
NAME = 125.in
|  1> #
|  2> # 125 ri-B2PLYP-D3BJ/Def2-TZVPPD
|  3> #
|  4> ! rijk ri-b2plyp d3bj def2-tzvppd def2/jk def2-tzvppd/c grid4 nofinalgrid
|  5> 
|  6> *xyz 0 1
|  7> Li        -0.48880       -0.51538       -0.00659
|  8> H         -0.55944        2.54233       -0.00436
|  9> H         -2.17580       -1.82520        0.01329
| 10> C         -0.08896        1.54088       -0.00480
| 11> H         -1.56083       -2.26841        0.00934
| 12> Cl         1.44004       -1.55839       -0.00318
| 13> H          1.87023        0.32576       -0.00203
| 14> S          1.56356        1.75840       -0.00167
| 15> *
| 16> 
| 17> %maxcore 5000
| 18> 
| 19> %pal
| 20> nprocs = 24
| 21> end
| 22> 
| 23> 
| 24>                          ****END OF INPUT****
================================================================================

                       ****************************
                       * Single Point Calculation *
                       ****************************

---------------------------------
CARTESIAN COORDINATES (ANGSTROEM)
---------------------------------
  Li    -0.488800   -0.515380   -0.006590
  H     -0.559440    2.542330   -0.004360
  H     -2.175800   -1.825200    0.013290
  C     -0.088960    1.540880   -0.004800
  H     -1.560830   -2.268410    0.009340
  Cl     1.440040   -1.558390   -0.003180
  H      1.870230    0.325760   -0.002030
  S      1.563560    1.758400   -0.001670

----------------------------
CARTESIAN COORDINATES (A.U.)
----------------------------
  NO LB      ZA    FRAG     MASS         X           Y           Z
   0 Li    3.0000    0     6.941   -0.923698   -0.973927   -0.012453
   1 H     1.0000    0     1.008   -1.057188    4.804307   -0.008239
   2 H     1.0000    0     1.008   -4.111666   -3.449128    0.025114
   3 C     6.0000    0    12.011   -0.168110    2.911841   -0.009071
   4 H     1.0000    0     1.008   -2.949541   -4.286674    0.017650
   5 Cl   17.0000    0    35.453    2.721281   -2.944930   -0.006009
   6 H     1.0000    0     1.008    3.534223    0.615597   -0.003836
   7 S    16.0000    0    32.060    2.954700    3.322894   -0.003156

--------------------------------
INTERNAL COORDINATES (ANGSTROEM)
--------------------------------
 Li     0   0   0     0.000000000000     0.00000000     0.00000000
 H      1   0   0     3.058526675803     0.00000000     0.00000000
 H      1   2   0     2.135882170626   126.50071006     0.00000000
 C      2   1   3     1.106459997695    23.84065851   179.26748819
 H      3   1   2     0.758049343711    73.60489169   180.29230586
 Cl     1   2   3     2.192784812470   119.72537428   180.82080184
 H      6   1   2     1.932637053639    74.45934163   359.96118560
 S      7   6   1     1.465095214687   155.05630218     0.06204449

---------------------------
INTERNAL COORDINATES (A.U.)
---------------------------
 Li     0   0   0     0.000000000000     0.00000000     0.00000000
 H      1   0   0     5.779777790561     0.00000000     0.00000000
 H      1   2   0     4.036232356809   126.50071006     0.00000000
 C      2   1   3     2.090906373783    23.84065851   179.26748819
 H      3   1   2     1.432505655612    73.60489169   180.29230586
 Cl     1   2   3     4.143762766191   119.72537428   180.82080184
 H      6   1   2     3.652154747647    74.45934163   359.96118560
 S      7   6   1     2.768628715878   155.05630218     0.06204449

---------------------
BASIS SET INFORMATION
---------------------
There are 5 groups of distinct atoms

 Group   1 Type Li  : 11s4p1d contracted to 5s4p1d pattern {62111/1111/1}
 Group   2 Type H   : 5s3p1d contracted to 3s3p1d pattern {311/111/1}
 Group   3 Type C   : 12s6p3d1f contracted to 6s3p3d1f pattern {621111/411/111/1}
 Group   4 Type Cl  : 15s10p4d1f contracted to 6s6p4d1f pattern {732111/511111/1111/1}
 Group   5 Type S   : 15s10p4d1f contracted to 6s6p4d1f pattern {732111/511111/1111/1}

Atom   0Li   basis set group =>   1
Atom   1H    basis set group =>   2
Atom   2H    basis set group =>   2
Atom   3C    basis set group =>   3
Atom   4H    basis set group =>   2
Atom   5Cl   basis set group =>   4
Atom   6H    basis set group =>   2
Atom   7S    basis set group =>   5
---------------------------------
AUXILIARY/C BASIS SET INFORMATION
---------------------------------
There are 5 groups of distinct atoms

 Group   1 Type Li  : 10s7p4d1f contracted to 10s7p4d1f pattern {1111111111/1111111/1111/1}
 Group   2 Type H   : 5s4p3d1f contracted to 5s4p3d1f pattern {11111/1111/111/1}
 Group   3 Type C   : 9s7p6d4f1g contracted to 9s7p5d4f1g pattern {111111111/1111111/21111/1111/1}
 Group   4 Type Cl  : 12s9p8d6f2g contracted to 12s9p8d6f2g pattern {111111111111/111111111/11111111/111111/11}
 Group   5 Type S   : 12s9p8d6f2g contracted to 12s9p8d6f2g pattern {111111111111/111111111/11111111/111111/11}

Atom   0Li   basis set group =>   1
Atom   1H    basis set group =>   2
Atom   2H    basis set group =>   2
Atom   3C    basis set group =>   3
Atom   4H    basis set group =>   2
Atom   5Cl   basis set group =>   4
Atom   6H    basis set group =>   2
Atom   7S    basis set group =>   5
----------------------------------
AUXILIARY/JK BASIS SET INFORMATION
----------------------------------
There are 5 groups of distinct atoms

 Group   1 Type Li  : 10s7p4d2f contracted to 7s5p3d2f pattern {4111111/31111/211/11}
 Group   2 Type H   : 4s2p2d contracted to 2s2p2d pattern {31/11/11}
 Group   3 Type C   : 14s10p6d2f1g contracted to 10s8p5d1f1g pattern {5111111111/31111111/21111/2/1}
 Group   4 Type Cl  : 16s12p10d4f1g contracted to 13s11p9d4f1g pattern {4111111111111/21111111111/211111111/1111/1}
 Group   5 Type S   : 16s12p10d4f1g contracted to 13s11p9d4f1g pattern {4111111111111/21111111111/211111111/1111/1}

Atom   0Li   basis set group =>   1
Atom   1H    basis set group =>   2
Atom   2H    basis set group =>   2
Atom   3C    basis set group =>   3
Atom   4H    basis set group =>   2
Atom   5Cl   basis set group =>   4
Atom   6H    basis set group =>   2
Atom   7S    basis set group =>   5


           ************************************************************
           *        Program running with 24 parallel MPI-processes    *
           *              working on a common directory               *
           ************************************************************
------------------------------------------------------------------------------
                           ORCA GTO INTEGRAL CALCULATION
                           -- RI-GTO INTEGRALS CHOSEN --
------------------------------------------------------------------------------

                         BASIS SET STATISTICS AND STARTUP INFO

Gaussian basis set:
 # of primitive gaussian shells          ...  134
 # of primitive gaussian functions       ...  300
 # of contracted shells                  ...   85
 # of contracted basis functions         ...  229
 Highest angular momentum                ...    3
 Maximum contraction depth               ...    7
Auxiliary gaussian basis set:
 # of primitive gaussian shells          ...  174
 # of primitive gaussian functions       ...  520
 # of contracted shells                  ...  142
 # of contracted aux-basis functions     ...  454
 Highest angular momentum                ...    4
 Maximum contraction depth               ...    5
Ratio of auxiliary to basis functions    ...  1.98
Integral package used                  ... LIBINT
 One Electron integrals                  ... done
 Ordering auxiliary basis shells         ... done
 Integral threshhold             Thresh  ...  1.000e-10
 Primitive cut-off               TCut    ...  1.000e-11
 Pre-screening matrix                    ... done
 Shell pair data                         ... 
 Ordering of the shell pairs             ... done (   0.001 sec) 3371 of 3655 pairs
 Determination of significant pairs      ... done (   0.000 sec)
 Creation of shell pair data             ... done (   0.000 sec)
 Storage of shell pair data              ... done (   0.036 sec)
 Shell pair data done in (   0.037 sec)
 Computing two index integrals           ... done
 Cholesky decomposition of the V-matrix  ... done


Timings:
 Total evaluation time                   ...   0.234 sec (  0.004 min)
 One electron matrix time                ...   0.023 sec (  0.000 min) =  9.6%
 Schwartz matrix evaluation time         ...   0.130 sec (  0.002 min) = 55.5%
 Two index repulsion integral time       ...   0.004 sec (  0.000 min) =  1.8%
 Cholesky decomposition of V             ...   0.003 sec (  0.000 min) =  1.5%
 Three index repulsion integral time     ...   0.000 sec (  0.000 min) =  0.0%



           ************************************************************
           *        Program running with 24 parallel MPI-processes    *
           *              working on a common directory               *
           ************************************************************
-------------------------------------------------------------------------------
                                 ORCA SCF
-------------------------------------------------------------------------------

------------
SCF SETTINGS
------------
Hamiltonian:
 Density Functional     Method          .... DFT(GTOs)
 Exchange Functional    Exchange        .... B88
   X-Alpha parameter    XAlpha          ....  0.666667
   Becke's b parameter  XBeta           ....  0.004200
 Correlation Functional Correlation     .... LYP
 LDA part of GGA corr.  LDAOpt          .... VWN-3
 Gradients option       PostSCFGGA      .... off
 Hybrid DFT is turned on
   Fraction HF Exchange ScalHFX         ....  0.530000
   Scaling of DF-GGA-X  ScalDFX         ....  0.470000
   Scaling of DF-GGA-C  ScalDFC         ....  0.730000
   Scaling of DF-LDA-C  ScalLDAC        ....  0.730000
   Perturbative correction              ....  0.270000
   Density functional embedding theory  .... OFF
 RI-approximation to the Coulomb term is turned on
   Number of auxiliary basis functions  .... 454
   RI-JK (J+K treated both via RI)      .... on


General Settings:
 Integral files         IntName         .... 125
 Hartree-Fock type      HFTyp           .... RHF
 Total Charge           Charge          ....    0
 Multiplicity           Mult            ....    1
 Number of Electrons    NEL             ....   46
 Basis Dimension        Dim             ....  229
 Nuclear Repulsion      ENuc            ....    149.2653237614 Eh

Convergence Acceleration:
 DIIS                   CNVDIIS         .... on
   Start iteration      DIISMaxIt       ....    12
   Startup error        DIISStart       ....  0.200000
   # of expansion vecs  DIISMaxEq       ....     5
   Bias factor          DIISBfac        ....   1.050
   Max. coefficient     DIISMaxC        ....  10.000
 Newton-Raphson         CNVNR           .... off
 SOSCF                  CNVSOSCF        .... on
   Start iteration      SOSCFMaxIt      ....   150
   Startup grad/error   SOSCFStart      ....  0.003300
 Level Shifting         CNVShift        .... on
   Level shift para.    LevelShift      ....    0.2500
   Turn off err/grad.   ShiftErr        ....    0.0010
 Zerner damping         CNVZerner       .... off
 Static damping         CNVDamp         .... on
   Fraction old density DampFac         ....    0.7000
   Max. Damping (<1)    DampMax         ....    0.9800
   Min. Damping (>=0)   DampMin         ....    0.0000
   Turn off err/grad.   DampErr         ....    0.1000
 Fernandez-Rico         CNVRico         .... off

SCF Procedure:
 Maximum # iterations   MaxIter         ....   125
 SCF integral mode      SCFMode         .... Direct
   Integral package                     .... LIBINT
 Reset frequency        DirectResetFreq ....    20
 Integral Threshold     Thresh          ....  1.000e-10 Eh
 Primitive CutOff       TCut            ....  1.000e-11 Eh

Convergence Tolerance:
 Convergence Check Mode ConvCheckMode   .... Total+1el-Energy
 Convergence forced     ConvForced      .... 0
 Energy Change          TolE            ....  1.000e-06 Eh
 1-El. energy change                    ....  1.000e-03 Eh
 Orbital Gradient       TolG            ....  5.000e-05
 Orbital Rotation angle TolX            ....  5.000e-05
 DIIS Error             TolErr          ....  1.000e-06


Diagonalization of the overlap matrix:
Smallest eigenvalue                        ... 6.180e-05
Time for diagonalization                   ...    0.011 sec
Threshold for overlap eigenvalues          ... 1.000e-08
Number of eigenvalues below threshold      ... 0
Time for construction of square roots      ...    0.007 sec
Total time needed                          ...    0.018 sec

-------------------
DFT GRID GENERATION
-------------------

General Integration Accuracy     IntAcc      ...  4.670
Radial Grid Type                 RadialGrid  ... Gauss-Chebyshev
Angular Grid (max. acc.)         AngularGrid ... Lebedev-302
Angular grid pruning method      GridPruning ... 3 (G Style)
Weight generation scheme         WeightScheme... Becke
Basis function cutoff            BFCut       ...    1.0000e-10
Integration weight cutoff        WCut        ...    1.0000e-14
Grids for H and He will be reduced by one unit

# of grid points (after initial pruning)     ...  39248 (   0.0 sec)
# of grid points (after weights+screening)   ...  37628 (   0.0 sec)
nearest neighbour list constructed           ...    0.0 sec
Grid point re-assignment to atoms done       ...    0.0 sec
Grid point division into batches done        ...    0.2 sec
Reduced shell lists constructed in    0.2 sec

Total number of grid points                  ...    37628
Total number of batches                      ...      591
Average number of points per batch           ...       63
Average number of grid points per atom       ...     4704
Average number of shells per batch           ...    55.54 (65.34%)
Average number of basis functions per batch  ...   152.23 (66.48%)
Average number of large shells per batch     ...    45.77 (82.41%)
Average number of large basis fcns per batch ...   122.69 (80.60%)
Average number of aux-shells per batch       ...    55.54 (39.11%)
Average number of aux functions per batch    ...   152.23 (33.53%)
Maximum spatial batch extension              ...   5.57,  5.09, 29.34 au
Average spatial batch extension              ...   0.13,  0.12,  0.20 au

Time for grid setup =    0.290 sec

------------------------------
INITIAL GUESS: MODEL POTENTIAL
------------------------------
Loading Hartree-Fock densities                     ... done
Calculating cut-offs                               ... done
Setting up the integral package                    ... done
Initializing the effective Hamiltonian             ... done
Starting the Coulomb interaction                   ... done (   0.0 sec)
Reading the grid                                   ... done
Mapping shells                                     ... done
Starting the XC term evaluation                    ... done (   0.0 sec)
  promolecular density results
     # of electrons  =     45.998176399
     EX              =    -60.578033993
     EC              =     -0.582196752
     EX+EC           =    -61.160230745
Transforming the Hamiltonian                       ... done (   0.0 sec)
Diagonalizing the Hamiltonian                      ... done (   0.0 sec)
Back transforming the eigenvectors                 ... done (   0.0 sec)
Now organizing SCF variables                       ... done
                      ------------------
                      INITIAL GUESS DONE (   0.4 sec)
                      ------------------
--------------
SCF ITERATIONS
--------------
ITER       Energy         Delta-E        Max-DP      RMS-DP      [F,P]     Damp
  0   -905.8054739224   0.000000000000 0.06819264  0.00084107  0.2899534 0.7000
  1   -905.8036027192   0.001871203222 0.05659047  0.00080409  0.2326164 0.7000
                               ***Turning on DIIS***
  2   -905.8318744681  -0.028271748872 0.02831737  0.00050839  0.1152262 0.7000
  3   -905.8702021669  -0.038327698827 0.10045411  0.00100229  0.0391901 0.0000
  4   -905.9360878806  -0.065885713751 0.02593143  0.00041163  0.0601522 0.0000
  5   -905.9446060866  -0.008518205948 0.01177562  0.00020302  0.0305285 0.0000
  6   -905.9465868189  -0.001980732261 0.00470896  0.00009105  0.0129320 0.0000
  7   -905.9469533853  -0.000366566401 0.00220054  0.00003948  0.0057545 0.0000
                      *** Initiating the SOSCF procedure ***
                           *** Shutting down DIIS ***
                      *** Re-Reading the Fockian *** 
                      *** Removing any level shift *** 
ITER      Energy       Delta-E        Grad      Rot      Max-DP    RMS-DP
  8   -905.94701337  -0.0000599891  0.000971  0.000971  0.000965  0.000019
  9   -905.94702481  -0.0000114315  0.000645  0.001966  0.001113  0.000017
 10   -905.94702630  -0.0000014917  0.000304  0.000230  0.000558  0.000009
 11   -905.94702813  -0.0000018296  0.000040  0.000075  0.000093  0.000002
                 **** Energy Check signals convergence ****
              ***Rediagonalizing the Fockian in SOSCF/NRSCF***

               *****************************************************
               *                     SUCCESS                       *
               *           SCF CONVERGED AFTER  12 CYCLES          *
               *****************************************************


----------------
TOTAL SCF ENERGY
----------------

Total Energy       :         -905.94702816 Eh          -24652.07192 eV

Components:
Nuclear Repulsion  :          149.26532376 Eh            4061.71595 eV
Electronic Energy  :        -1055.21235192 Eh          -28713.78788 eV
One Electron Energy:        -1547.24586426 Eh          -42102.70043 eV
Two Electron Energy:          492.03351233 Eh           13388.91255 eV

Virial components:
Potential Energy   :        -1810.67387764 Eh          -49270.94110 eV
Kinetic Energy     :          904.72684948 Eh           24618.86917 eV
Virial Ratio       :            2.00134867


DFT components:
N(Alpha)           :       23.000046594426 electrons
N(Beta)            :       23.000046594426 electrons
N(Total)           :       46.000093188852 electrons
E(X)               :      -28.630273197973 Eh       
E(C)               :       -1.266638082249 Eh       
E(XC)              :      -29.896911280222 Eh       
DFET-embed. en.    :        0.000000000000 Eh       

---------------
SCF CONVERGENCE
---------------

  Last Energy change         ...   -3.5536e-08  Tolerance :   1.0000e-06
  Last MAX-Density change    ...    5.4415e-05  Tolerance :   1.0000e-05
  Last RMS-Density change    ...    1.1162e-06  Tolerance :   1.0000e-06
  Last Orbital Gradient      ...    1.2229e-05  Tolerance :   5.0000e-05
  Last Orbital Rotation      ...    4.0992e-05  Tolerance :   5.0000e-05

             **** THE GBW FILE WAS UPDATED (125.gbw) ****
             **** DENSITY FILE WAS UPDATED (125.scfp) ****
             **** ENERGY FILE WAS UPDATED (125.en.tmp) ****
             **** THE GBW FILE WAS UPDATED (125.gbw) ****
             **** DENSITY FILE WAS UPDATED (125.scfp) ****
----------------
ORBITAL ENERGIES
----------------

  NO   OCC          E(Eh)            E(eV) 
   0   2.0000    -102.820381     -2797.8848 
   1   2.0000     -90.201229     -2454.5002 
   2   2.0000     -10.686484      -290.7940 
   3   2.0000      -9.826806      -267.4010 
   4   2.0000      -8.405574      -228.7273 
   5   2.0000      -7.463103      -203.0814 
   6   2.0000      -7.462713      -203.0707 
   7   2.0000      -7.462324      -203.0602 
   8   2.0000      -6.250430      -170.0829 
   9   2.0000      -6.249795      -170.0656 
  10   2.0000      -6.248303      -170.0250 
  11   2.0000      -2.166604       -58.9563 
  12   2.0000      -0.927840       -25.2478 
  13   2.0000      -0.840273       -22.8650 
  14   2.0000      -0.689398       -18.7595 
  15   2.0000      -0.557526       -15.1711 
  16   2.0000      -0.495044       -13.4708 
  17   2.0000      -0.479028       -13.0350 
  18   2.0000      -0.382387       -10.4053 
  19   2.0000      -0.346749        -9.4355 
  20   2.0000      -0.336312        -9.1515 
  21   2.0000      -0.317347        -8.6354 
  22   2.0000      -0.299432        -8.1479 
  23   0.0000      -0.054285        -1.4772 
  24   0.0000       0.004274         0.1163 
  25   0.0000       0.020812         0.5663 
  26   0.0000       0.023826         0.6483 
  27   0.0000       0.033030         0.8988 
  28   0.0000       0.043735         1.1901 
  29   0.0000       0.049207         1.3390 
  30   0.0000       0.065757         1.7893 
  31   0.0000       0.074110         2.0166 
  32   0.0000       0.088330         2.4036 
  33   0.0000       0.096049         2.6136 
  34   0.0000       0.098637         2.6841 
  35   0.0000       0.107066         2.9134 
  36   0.0000       0.108292         2.9468 
  37   0.0000       0.111072         3.0224 
  38   0.0000       0.126629         3.4458 
  39   0.0000       0.137870         3.7516 
  40   0.0000       0.148333         4.0363 
  41   0.0000       0.153354         4.1730 
  42   0.0000       0.169222         4.6048 
  43   0.0000       0.193747         5.2721 
  44   0.0000       0.201053         5.4709 
  45   0.0000       0.210780         5.7356 
  46   0.0000       0.217061         5.9065 
  47   0.0000       0.218477         5.9451 
  48   0.0000       0.224538         6.1100 
  49   0.0000       0.235989         6.4216 
  50   0.0000       0.243207         6.6180 
  51   0.0000       0.253661         6.9025 
  52   0.0000       0.267827         7.2879 
  53   0.0000       0.279001         7.5920 
  54   0.0000       0.280724         7.6389 
  55   0.0000       0.286674         7.8008 
  56   0.0000       0.289486         7.8773 
  57   0.0000       0.312507         8.5037 
  58   0.0000       0.317827         8.6485 
  59   0.0000       0.329419         8.9640 
  60   0.0000       0.332103         9.0370 
  61   0.0000       0.339362         9.2345 
  62   0.0000       0.345651         9.4056 
  63   0.0000       0.351210         9.5569 
  64   0.0000       0.369456        10.0534 
  65   0.0000       0.375157        10.2085 
  66   0.0000       0.390616        10.6292 
  67   0.0000       0.404673        11.0117 
  68   0.0000       0.413439        11.2503 
  69   0.0000       0.423100        11.5131 
  70   0.0000       0.435595        11.8531 
  71   0.0000       0.447450        12.1757 
  72   0.0000       0.468370        12.7450 
  73   0.0000       0.488226        13.2853 
  74   0.0000       0.496332        13.5059 
  75   0.0000       0.519056        14.1242 
  76   0.0000       0.525288        14.2938 
  77   0.0000       0.525807        14.3079 
  78   0.0000       0.554250        15.0819 
  79   0.0000       0.555143        15.1062 
  80   0.0000       0.569058        15.4848 
  81   0.0000       0.577949        15.7268 
  82   0.0000       0.603416        16.4198 
  83   0.0000       0.617689        16.8082 
  84   0.0000       0.619426        16.8554 
  85   0.0000       0.646513        17.5925 
  86   0.0000       0.694511        18.8986 
  87   0.0000       0.702515        19.1164 
  88   0.0000       0.702943        19.1281 
  89   0.0000       0.709306        19.3012 
  90   0.0000       0.722438        19.6585 
  91   0.0000       0.736052        20.0290 
  92   0.0000       0.746381        20.3101 
  93   0.0000       0.746657        20.3176 
  94   0.0000       0.777567        21.1587 
  95   0.0000       0.784981        21.3604 
  96   0.0000       0.792804        21.5733 
  97   0.0000       0.795195        21.6384 
  98   0.0000       0.800147        21.7731 
  99   0.0000       0.839374        22.8405 
 100   0.0000       0.868871        23.6432 
 101   0.0000       0.880996        23.9731 
 102   0.0000       0.896580        24.3972 
 103   0.0000       0.909908        24.7599 
 104   0.0000       0.940052        25.5801 
 105   0.0000       1.015921        27.6446 
 106   0.0000       1.029911        28.0253 
 107   0.0000       1.039380        28.2830 
 108   0.0000       1.054169        28.6854 
 109   0.0000       1.076073        29.2814 
 110   0.0000       1.136847        30.9352 
 111   0.0000       1.160854        31.5885 
 112   0.0000       1.163670        31.6651 
 113   0.0000       1.207032        32.8450 
 114   0.0000       1.232268        33.5317 
 115   0.0000       1.236305        33.6416 
 116   0.0000       1.290183        35.1077 
 117   0.0000       1.324692        36.0467 
 118   0.0000       1.390831        37.8464 
 119   0.0000       1.471868        40.0516 
 120   0.0000       1.505960        40.9793 
 121   0.0000       1.546722        42.0884 
 122   0.0000       1.638394        44.5830 
 123   0.0000       1.649919        44.8966 
 124   0.0000       1.683178        45.8016 
 125   0.0000       1.686574        45.8940 
 126   0.0000       1.694213        46.1019 
 127   0.0000       1.783228        48.5241 
 128   0.0000       1.810436        49.2645 
 129   0.0000       1.814051        49.3628 
 130   0.0000       1.816869        49.4395 
 131   0.0000       1.893147        51.5152 
 132   0.0000       1.901579        51.7446 
 133   0.0000       1.951472        53.1023 
 134   0.0000       2.010415        54.7062 
 135   0.0000       2.044976        55.6466 
 136   0.0000       2.046729        55.6943 
 137   0.0000       2.129158        57.9373 
 138   0.0000       2.130263        57.9674 
 139   0.0000       2.161345        58.8132 
 140   0.0000       2.170978        59.0753 
 141   0.0000       2.200031        59.8659 
 142   0.0000       2.214713        60.2654 
 143   0.0000       2.245126        61.0930 
 144   0.0000       2.294295        62.4310 
 145   0.0000       2.298778        62.5529 
 146   0.0000       2.313882        62.9639 
 147   0.0000       2.320432        63.1422 
 148   0.0000       2.347631        63.8823 
 149   0.0000       2.372049        64.5467 
 150   0.0000       2.378811        64.7307 
 151   0.0000       2.428589        66.0853 
 152   0.0000       2.535329        68.9898 
 153   0.0000       2.554218        69.5038 
 154   0.0000       2.644802        71.9687 
 155   0.0000       2.662547        72.4516 
 156   0.0000       2.703913        73.5772 
 157   0.0000       2.711712        73.7894 
 158   0.0000       2.755057        74.9689 
 159   0.0000       2.794496        76.0421 
 160   0.0000       2.834381        77.1274 
 161   0.0000       2.922271        79.5190 
 162   0.0000       2.978348        81.0450 
 163   0.0000       2.998306        81.5880 
 164   0.0000       3.020733        82.1983 
 165   0.0000       3.042548        82.7919 
 166   0.0000       3.089078        84.0581 
 167   0.0000       3.218986        87.5931 
 168   0.0000       3.244364        88.2836 
 169   0.0000       3.290493        89.5389 
 170   0.0000       3.330549        90.6288 
 171   0.0000       3.339344        90.8682 
 172   0.0000       3.414437        92.9116 
 173   0.0000       3.440174        93.6119 
 174   0.0000       3.493559        95.0646 
 175   0.0000       3.549405        96.5842 
 176   0.0000       3.572674        97.2174 
 177   0.0000       3.630018        98.7778 
 178   0.0000       3.689410       100.3939 
 179   0.0000       3.754898       102.1760 
 180   0.0000       3.755473       102.1916 
 181   0.0000       3.799403       103.3870 
 182   0.0000       3.850767       104.7847 
 183   0.0000       3.859208       105.0144 
 184   0.0000       3.860017       105.0364 
 185   0.0000       3.866108       105.2021 
 186   0.0000       3.947514       107.4173 
 187   0.0000       3.958554       107.7177 
 188   0.0000       4.042279       109.9960 
 189   0.0000       4.060867       110.5018 
 190   0.0000       4.095575       111.4463 
 191   0.0000       4.098386       111.5228 
 192   0.0000       4.120011       112.1112 
 193   0.0000       4.256075       115.8137 
 194   0.0000       4.279190       116.4427 
 195   0.0000       4.445242       120.9612 
 196   0.0000       4.567792       124.2959 
 197   0.0000       4.749619       129.2437 
 198   0.0000       4.833971       131.5390 
 199   0.0000       4.953554       134.7931 
 200   0.0000       5.066594       137.8690 
 201   0.0000       5.422094       147.5427 
 202   0.0000       5.422135       147.5438 
 203   0.0000       5.473893       148.9522 
 204   0.0000       5.632973       153.2810 
 205   0.0000       6.116007       166.4250 
 206   0.0000       6.361129       173.0951 
 207   0.0000       6.459930       175.7836 
 208   0.0000       6.818936       185.5527 
 209   0.0000       6.971508       189.7044 
 210   0.0000       6.993620       190.3061 
 211   0.0000       7.100997       193.2279 
 212   0.0000       7.143419       194.3823 
 213   0.0000       7.659775       208.4331 
 214   0.0000       8.476809       230.6657 
 215   0.0000       8.485205       230.8942 
 216   0.0000       8.517741       231.7795 
 217   0.0000       8.553575       232.7546 
 218   0.0000       8.627804       234.7745 
 219   0.0000       9.207231       250.5415 
 220   0.0000       9.530965       259.3508 
 221   0.0000       9.672037       263.1895 
 222   0.0000      11.179737       304.2161 
 223   0.0000      11.322153       308.0914 
 224   0.0000      11.463122       311.9274 
 225   0.0000      15.036908       409.1751 
 226   0.0000      20.613760       560.9289 
 227   0.0000      22.844020       621.6174 
 228   0.0000      25.934683       705.7186 

                    ********************************
                    * MULLIKEN POPULATION ANALYSIS *
                    ********************************

-----------------------
MULLIKEN ATOMIC CHARGES
-----------------------
   0 Li:    0.770081
   1 H :   -0.001821
   2 H :   -0.044638
   3 C :   -0.219905
   4 H :    0.076128
   5 Cl:   -0.757750
   6 H :    0.284938
   7 S :   -0.107034
Sum of atomic charges:    0.0000000

--------------------------------
MULLIKEN REDUCED ORBITAL CHARGES
--------------------------------
  0 Lis       :     2.096622  s :     2.096622
      pz      :     0.015403  p :     0.019630
      px      :     0.002864
      py      :     0.001364
      dz2     :     0.014626  d :     0.113666
      dxz     :     0.007470
      dyz     :     0.008678
      dx2y2   :     0.032535
      dxy     :     0.050357
  1 H s       :     0.911140  s :     0.911140
      pz      :     0.007692  p :     0.088488
      px      :     0.022467
      py      :     0.058328
      dz2     :     0.000089  d :     0.002194
      dxz     :     0.000131
      dyz     :     0.000223
      dx2y2   :     0.001077
      dxy     :     0.000674
  2 H s       :     1.016886  s :     1.016886
      pz      :     0.000222  p :     0.027586
      px      :     0.022837
      py      :     0.004527
      dz2     :     0.000142  d :     0.000166
      dxz     :     0.000001
      dyz     :     0.000000
      dx2y2   :     0.000042
      dxy     :    -0.000018
  3 C s       :     3.464136  s :     3.464136
      pz      :     0.460402  p :     2.677067
      px      :     0.877536
      py      :     1.339130
      dz2     :     0.007273  d :     0.074957
      dxz     :     0.025378
      dyz     :     0.007949
      dx2y2   :     0.020193
      dxy     :     0.014164
      f0      :     0.000555  f :     0.003744
      f+1     :     0.000272
      f-1     :     0.000292
      f+2     :     0.000737
      f-2     :     0.000062
      f+3     :     0.001006
      f-3     :     0.000820
  4 H s       :     0.889614  s :     0.889614
      pz      :     0.000250  p :     0.034145
      px      :     0.027007
      py      :     0.006889
      dz2     :     0.000135  d :     0.000112
      dxz     :     0.000002
      dyz     :     0.000000
      dx2y2   :    -0.000015
      dxy     :    -0.000009
  5 Cls       :     6.009174  s :     6.009174
      pz      :     3.955972  p :    11.731201
      px      :     3.903992
      py      :     3.871237
      dz2     :     0.002690  d :     0.016946
      dxz     :     0.001228
      dyz     :     0.002137
      dx2y2   :     0.007344
      dxy     :     0.003547
      f0      :     0.000039  f :     0.000429
      f+1     :     0.000046
      f-1     :     0.000129
      f+2     :     0.000003
      f-2     :     0.000005
      f+3     :     0.000070
      f-3     :     0.000138
  6 H s       :     0.663064  s :     0.663064
      pz      :     0.014926  p :     0.049524
      px      :    -0.005416
      py      :     0.040014
      dz2     :     0.000347  d :     0.002474
      dxz     :     0.000056
      dyz     :     0.000535
      dx2y2   :     0.000914
      dxy     :     0.000621
  7 S s       :     5.881816  s :     5.881816
      pz      :     3.466807  p :    10.050459
      px      :     3.142695
      py      :     3.440956
      dz2     :     0.012637  d :     0.161708
      dxz     :     0.022740
      dyz     :    -0.001367
      dx2y2   :     0.060562
      dxy     :     0.067137
      f0      :     0.000807  f :     0.013051
      f+1     :     0.001604
      f-1     :     0.000894
      f+2     :     0.000948
      f-2     :     0.000016
      f+3     :     0.003126
      f-3     :     0.005656


                     *******************************
                     * LOEWDIN POPULATION ANALYSIS *
                     *******************************

----------------------
LOEWDIN ATOMIC CHARGES
----------------------
   0 Li:   -0.015387
   1 H :   -0.165641
   2 H :    0.092740
   3 C :   -0.351011
   4 H :    0.066317
   5 Cl:   -0.048724
   6 H :   -0.413611
   7 S :    0.835317

-------------------------------
LOEWDIN REDUCED ORBITAL CHARGES
-------------------------------
  0 Lis       :     2.100702  s :     2.100702
      pz      :     0.049686  p :     0.469072
      px      :     0.178655
      py      :     0.240731
      dz2     :     0.062774  d :     0.445613
      dxz     :     0.045948
      dyz     :     0.033993
      dx2y2   :     0.124181
      dxy     :     0.178717
  1 H s       :     0.772812  s :     0.772812
      pz      :     0.057718  p :     0.364922
      px      :     0.120999
      py      :     0.186205
      dz2     :     0.002954  d :     0.027908
      dxz     :     0.000876
      dyz     :     0.002813
      dx2y2   :     0.011766
      dxy     :     0.009500
  2 H s       :     0.829932  s :     0.829932
      pz      :     0.000513  p :     0.071499
      px      :     0.049233
      py      :     0.021753
      dz2     :     0.001610  d :     0.005829
      dxz     :     0.000003
      dyz     :     0.000003
      dx2y2   :     0.000524
      dxy     :     0.003689
  3 C s       :     3.006672  s :     3.006672
      pz      :     0.450063  p :     2.756136
      px      :     1.082127
      py      :     1.223946
      dz2     :     0.060889  d :     0.564437
      dxz     :     0.116255
      dyz     :     0.007827
      dx2y2   :     0.176857
      dxy     :     0.202608
      f0      :     0.001646  f :     0.023766
      f+1     :     0.002841
      f-1     :     0.001312
      f+2     :     0.004137
      f-2     :     0.000470
      f+3     :     0.006385
      f-3     :     0.006975
  4 H s       :     0.808416  s :     0.808416
      pz      :     0.001966  p :     0.119235
      px      :     0.083531
      py      :     0.033738
      dz2     :     0.001653  d :     0.006033
      dxz     :     0.000003
      dyz     :     0.000002
      dx2y2   :     0.000326
      dxy     :     0.004049
  5 Cls       :     5.628074  s :     5.628074
      pz      :     3.842872  p :    11.317358
      px      :     3.779891
      py      :     3.694594
      dz2     :     0.021951  d :     0.102201
      dxz     :     0.000560
      dyz     :     0.003335
      dx2y2   :     0.048084
      dxy     :     0.028271
      f0      :     0.000005  f :     0.001091
      f+1     :     0.000038
      f-1     :     0.000327
      f+2     :     0.000001
      f-2     :     0.000001
      f+3     :     0.000308
      f-3     :     0.000411
  6 H s       :     0.692708  s :     0.692708
      pz      :     0.113144  p :     0.698839
      px      :     0.100853
      py      :     0.484842
      dz2     :     0.002957  d :     0.022064
      dxz     :     0.000296
      dyz     :     0.004557
      dx2y2   :     0.009108
      dxy     :     0.005146
  7 S s       :     5.135628  s :     5.135628
      pz      :     3.231506  p :     9.561470
      px      :     3.099761
      py      :     3.230203
      dz2     :     0.054840  d :     0.433209
      dxz     :     0.020393
      dyz     :     0.007327
      dx2y2   :     0.161104
      dxy     :     0.189545
      f0      :     0.000388  f :     0.034376
      f+1     :     0.003810
      f-1     :     0.001779
      f+2     :     0.001624
      f-2     :     0.000105
      f+3     :     0.008964
      f-3     :     0.017706


                      *****************************
                      * MAYER POPULATION ANALYSIS *
                      *****************************

  NA   - Mulliken gross atomic population
  ZA   - Total nuclear charge
  QA   - Mulliken gross atomic charge
  VA   - Mayer's total valence
  BVA  - Mayer's bonded valence
  FA   - Mayer's free valence

  ATOM       NA         ZA         QA         VA         BVA        FA
  0 Li     2.2299     3.0000     0.7701     0.4462     0.4462    -0.0000
  1 H      1.0018     1.0000    -0.0018     1.1578     1.1578     0.0000
  2 H      1.0446     1.0000    -0.0446     1.0253     1.0253    -0.0000
  3 C      6.2199     6.0000    -0.2199     2.9271     2.9271     0.0000
  4 H      0.9239     1.0000     0.0761     0.9905     0.9905    -0.0000
  5 Cl    17.7577    17.0000    -0.7577     0.4670     0.4670     0.0000
  6 H      0.7151     1.0000     0.2849     0.9166     0.9166     0.0000
  7 S     16.1070    16.0000    -0.1070     2.4841     2.4841     0.0000

  Mayer bond orders larger than 0.100000
B(  0-Li,  3-C ) :   0.1186 B(  0-Li,  5-Cl) :   0.2156 B(  1-H ,  3-C ) :   1.1087 
B(  2-H ,  4-H ) :   0.9576 B(  3-C ,  7-S ) :   1.6510 B(  5-Cl,  6-H ) :   0.1585 
B(  6-H ,  7-S ) :   0.7692 

-------
TIMINGS
-------

Total SCF time: 0 days 0 hours 0 min 3 sec 

Total time                  ....       3.401 sec
Sum of individual times     ....       3.233 sec  ( 95.1%)

Fock matrix formation       ....       2.674 sec  ( 78.6%)
  XC integration            ....       0.394 sec  ( 14.7% of F)
    Basis function eval.    ....       0.073 sec  ( 18.5% of XC)
    Density eval.           ....       0.058 sec  ( 14.7% of XC)
    XC-Functional eval.     ....       0.016 sec  (  4.0% of XC)
    XC-Potential eval.      ....       0.109 sec  ( 27.6% of XC)
Diagonalization             ....       0.069 sec  (  2.0%)
Density matrix formation    ....       0.014 sec  (  0.4%)
Population analysis         ....       0.008 sec  (  0.2%)
Initial guess               ....       0.126 sec  (  3.7%)
Orbital Transformation      ....       0.000 sec  (  0.0%)
Orbital Orthonormalization  ....       0.000 sec  (  0.0%)
DIIS solution               ....       0.032 sec  (  0.9%)
SOSCF solution              ....       0.021 sec  (  0.6%)
Grid generation             ....       0.290 sec  (  8.5%)


           ************************************************************
           *        Program running with 24 parallel MPI-processes    *
           *              working on a common directory               *
           ************************************************************

------------------------------------------------------------------------------
                                ORCA  MP2 
------------------------------------------------------------------------------

Freezing NCore=22 chemical core electrons

-------------
RI-MP2 ENERGY
-------------
Dimension of the basis                    ...  229
Memory devoted to MP2                     ... 5000 MB   
Data format for buffers                   ... DOUBLE
Compression type for matrix containers    ... UNCOMPRESSED
Overall scaling of the MP2 energy         ...   2.700e-01
Calculating two index integrals           ... done (    0.003 sec)
Cholesky decomposition of V**-1           ... done (    0.024 sec)

-----------------
RI-TRANSFORMATION (AUX index driven)
-----------------

Dimension of the orbital-basis         ... 229
Dimension of the aux-basis             ... 584
Transformation of internal/external MOs...   11-  22 to   23- 228
Number Format for Storage              ... Double (8 Byte)
Integral mode                          ... Direct

First Phase: integral generation and transformation of MO indices
  Aux angular momentum 0               ... done (    0.004 sec)
  Aux angular momentum 1               ... done (    0.004 sec)
  Aux angular momentum 2               ... done (    0.007 sec)
  Aux angular momentum 3               ... done (    0.005 sec)
  Aux angular momentum 4               ... done (    0.006 sec)
Closing buffer VIA ( 0.01 GB; CompressionRatio= 1.00)
  Phase 1 completed in     0.128 sec
Second Phase: sorting and transformation of aux index

IA-Transformation
Memory available                       ... 4994 MB 
Max. # MO pairs treated in a batch     ... 1    
# of internal orbitals                 ... 12
# batches for internal orbitals        ... 1
Closing buffer IAV ( 0.00 GB; CompressionRatio= 1.00)
(ia|v) transformation done in     0.009 sec

  Phase 2 completed in     0.021 sec
RI-Integral transformation completed in     0.150 sec
Opening buffers                              ... done

Starting loop over batches of integrals:

Operator 0  - window                       ... ( 11- 22)x( 23-228)
Operator 0  - Memory available             ...  5000 MB
Operator 0  - Memory needed per MO         ...   0.9 MB
Operator 0  - Number of orbitals per batch ... 1
Operator 0  - Number of batches            ... 1

OPERATOR  0   PASS   0:  MOs    11 ...   11 +   12 ...   12 +   13 ...   13 +   14 ...   14
                            +   15 ...   15 +   16 ...   16 +   17 ...   17 +   18 ...   18
                            +   19 ...   19 +   20 ...   20 +   21 ...   21 +   22 ...   22
  Reading integrals       ... ok
Time spent in pair loops =     0.004 sec
Deleting buffer (Ka|jb)[aa] ...done

-----------------------------------------------
 RI-MP2 CORRELATION ENERGY:     -0.203828650 Eh
-----------------------------------------------


-------
TIMINGS
-------

Total time                :    0.215 sec
Integral trafo            :    0.168 sec ( 77.8%)
I/O of integrals          :    0.001 sec (  0.4%)
K(i,j) Operators          :    0.001 sec (  0.5%)
T(i,j) pair energies      :    0.000 sec (  0.2%)
V-calculation             :    0.003 sec (  1.5%)
V**(-1/2)                 :    0.024 sec ( 11.1%)
Gamma(ia|P)               :    0.000 sec (  0.0%)
Gamma-Trafo               :    0.000 sec (  0.0%)
D(virtual)                :    0.000 sec (  0.0%)
D(internal)               :    0.000 sec (  0.0%)
W(virtual)                :    0.000 sec (  0.0%)
W(internal)               :    0.000 sec (  0.0%)
L(virtual)                :    0.000 sec (  0.0%)
L(internal)               :    0.000 sec (  0.0%)
G(D)                      :    0.000 sec (  0.0%)
G(Z)                      :    0.000 sec (  0.0%)
Z-Vector Solution         :    0.000 sec (  0.0%)
Z-Vector Solution         :    0.000 sec (  0.0%)
3-Index Derivative 
+ Separable RIJ part      :    0.000 sec (  0.0%)
2-Index Derivative 
+ Separable RIJ part      :    0.000 sec (  0.0%)
Separable Gradient (X)    :    0.000 sec (  0.0%)


---------------------------------------
MP2 TOTAL ENERGY:     -906.150856813 Eh
---------------------------------------


-------------------------------------------------------------------------------
                          DFT DISPERSION CORRECTION                            
                                                                               
                              DFTD3 V3.1  Rev 1                                
                          USING Becke-Johnson damping                          
-------------------------------------------------------------------------------
The B2PLYP functional is recognized
Active option DFTDOPT                   ...         4   

molecular C6(AA) [au] = 1701.286196 


            DFT-D V3
 parameters
 s6 scaling factor         :     0.6400 
 a1 scaling factor         :     0.3065 
 s8 scaling factor         :     0.9147 
 a2 scaling factor         :     5.0570 
 ad hoc parameters k1-k3   :    16.0000     1.3333    -4.0000 

 Edisp/kcal,au: -3.848753881861  -0.006133379065 
 E6   /kcal   :  -1.815198853 
 E8   /kcal   :  -2.033555028 
 % E8         :  52.836712629 

-------------------------   ----------------
Dispersion correction           -0.006133379
-------------------------   ----------------


-------------------------   --------------------
FINAL SINGLE POINT ENERGY      -906.156990192043
-------------------------   --------------------


                            ***************************************
                            *     ORCA property calculations      *
                            ***************************************


  WARNING: The energy has been calculated at the MP2 level but the densities
           used in the property calculations are still SCF densities
           MP2 response densities have not been calculated 
           use %mp2 Density relaxed end
           or  %mp2 Density unrelaxed end

                                    ---------------------
                                    Active property flags
                                    ---------------------
   (+) Dipole Moment


------------------------------------------------------------------------------
                       ORCA ELECTRIC PROPERTIES CALCULATION
------------------------------------------------------------------------------

Dipole Moment Calculation                       ... on
Quadrupole Moment Calculation                   ... off
Polarizability Calculation                      ... off
GBWName                                         ... 125.gbw
Electron density file                           ... 125.scfp
The origin for moment calculation is the CENTER OF MASS  = ( 1.968616,  0.309458 -0.005289)

-------------
DIPOLE MOMENT
-------------
                                X             Y             Z
Electronic contribution:      3.74261      -0.02283      -0.03076
Nuclear contribution   :     -5.38329       1.10078       0.02957
                        -----------------------------------------
Total Dipole Moment    :     -1.64069       1.07795      -0.00120
                        -----------------------------------------
Magnitude (a.u.)       :      1.96312
Magnitude (Debye)      :      4.98985



--------------------
Rotational spectrum 
--------------------
 
Rotational constants in cm-1:     0.253463     0.073830     0.057176 
Rotational constants in MHz :  7598.615767  2213.361097  1714.083710 

 Dipole components along the rotational axes: 
x,y,z [a.u.] :     1.077957    -1.640682    -0.001195 
x,y,z [Debye]:     2.739949    -4.170281    -0.003036 

 

Timings for individual modules:

Sum of individual times         ...        5.305 sec (=   0.088 min)
GTO integral calculation        ...        0.717 sec (=   0.012 min)  13.5 %
SCF iterations                  ...        3.845 sec (=   0.064 min)  72.5 %
MP2 module                      ...        0.743 sec (=   0.012 min)  14.0 %
                             ****ORCA TERMINATED NORMALLY****
TOTAL RUN TIME: 0 days 0 hours 0 minutes 5 seconds 943 msec
