
                                 *****************
                                 * O   R   C   A *
                                 *****************

           --- An Ab Initio, DFT and Semiempirical electronic structure package ---

                  #######################################################
                  #                        -***-                        #
                  #          Department of theory and spectroscopy      #
                  #               Directorship: Frank Neese             #
                  #        Max Planck Institute fuer Kohlenforschung    #
                  #                Kaiser Wilhelm Platz 1               #
                  #                 D-45470 Muelheim/Ruhr               #
                  #                      Germany                        #
                  #                                                     #
                  #                  All rights reserved                #
                  #                        -***-                        #
                  #######################################################


                         Program Version 4.2.0 -  RELEASE  -


 With contributions from (in alphabetic order):
   Daniel Aravena         : Magnetic Suceptibility
   Michael Atanasov       : Ab Initio Ligand Field Theory (pilot matlab implementation)
   Alexander A. Auer      : GIAO ZORA, VPT2
   Ute Becker             : Parallelization
   Giovanni Bistoni       : ED, misc. LED, open-shell LED, HFLED
   Martin Brehm           : Molecular dynamics
   Dmytro Bykov           : SCF Hessian
   Vijay G. Chilkuri      : MRCI spin determinant printing, contributions to CSF-ICE
   Dipayan Datta          : RHF DLPNO-CCSD density
   Achintya Kumar Dutta   : EOM-CC, STEOM-CC
   Dmitry Ganyushin       : Spin-Orbit,Spin-Spin,Magnetic field MRCI
   Miquel Garcia          : C-PCM Hessian, Gaussian charge scheme
   Yang Guo               : DLPNO-NEVPT2, CIM, IAO-localization
   Andreas Hansen         : Spin unrestricted coupled pair/coupled cluster methods
   Benjamin Helmich-Paris : CASSCF linear response (MC-RPA)
   Lee Huntington         : MR-EOM, pCC
   Robert Izsak           : Overlap fitted RIJCOSX, COSX-SCS-MP3, EOM
   Christian Kollmar      : KDIIS, OOCD, Brueckner-CCSD(T), CCSD density
   Simone Kossmann        : Meta GGA functionals, TD-DFT gradient, OOMP2, MP2 Hessian
   Martin Krupicka        : AUTO-CI
   Lucas Lang             : DCDCAS
   Dagmar Lenk            : GEPOL surface, SMD
   Dimitrios Liakos       : Extrapolation schemes; Compound Job, initial MDCI parallelization
   Dimitrios Manganas     : Further ROCIS development; embedding schemes
   Dimitrios Pantazis     : SARC Basis sets
   Taras Petrenko         : DFT Hessian,TD-DFT gradient, ASA, ECA, R-Raman, ABS, FL, XAS/XES, NRVS
   Peter Pinski           : DLPNO-MP2, DLPNO-MP2 Gradient
   Christoph Reimann      : Effective Core Potentials
   Marius Retegan         : Local ZFS, SOC
   Christoph Riplinger    : Optimizer, TS searches, QM/MM, DLPNO-CCSD(T), (RO)-DLPNO pert. Triples
   Tobias Risthaus        : Range-separated hybrids, TD-DFT gradient, RPA, STAB
   Michael Roemelt        : Original ROCIS implementation
   Masaaki Saitow         : Open-shell DLPNO-CCSD energy and density
   Barbara Sandhoefer     : DKH picture change effects
   Avijit Sen             : IP-ROCIS
   Kantharuban Sivalingam : CASSCF convergence, NEVPT2, FIC-MRCI
   Bernardo de Souza      : ESD, SOC TD-DFT
   Georgi Stoychev        : AutoAux, RI-MP2 NMR
   Willem Van den Heuvel  : Paramagnetic NMR
   Boris Wezisla          : Elementary symmetry handling
   Frank Wennmohs         : Technical directorship


 We gratefully acknowledge several colleagues who have allowed us to
 interface, adapt or use parts of their codes:
   Stefan Grimme, W. Hujo, H. Kruse,             : VdW corrections, initial TS optimization,
                  C. Bannwarth                     DFT functionals, gCP, sTDA/sTD-DF
   Ed Valeev, F. Pavosevic, A. Kumar             : LibInt (2-el integral package), F12 methods
   Garnet Chan, S. Sharma, J. Yang, R. Olivares  : DMRG
   Ulf Ekstrom                                   : XCFun DFT Library
   Mihaly Kallay                                 : mrcc  (arbitrary order and MRCC methods)
   Andreas Klamt, Michael Diedenhofen            : otool_cosmo (COSMO solvation model)
   Jiri Pittner, Ondrej Demel                    : Mk-CCSD
   Frank Weinhold                                : gennbo (NPA and NBO analysis)
   Christopher J. Cramer and Donald G. Truhlar   : smd solvation model
   Lars Goerigk                                  : TD-DFT with DH, B97 family of functionals
   V. Asgeirsson, H. Jonsson                     : NEB implementation
   FAccTs GmbH                                   : IRC, NEB, NEB-TS, Multilevel, MM, QM/MM, CI optimization
   S Lehtola, MJT Oliveira, MAL Marques          : LibXC Library


 Your calculation uses the libint2 library for the computation of 2-el integrals
 For citations please refer to: http://libint.valeyev.net

 Your ORCA version has been built with support for libXC version: 4.2.3
 For citations please refer to: https://tddft.org/programs/libxc/

 This ORCA versions uses:
   CBLAS   interface :  Fast vector & matrix operations
   LAPACKE interface :  Fast linear algebra routines
   SCALAPACK package :  Parallel linear algebra routines


Your calculation utilizes the atom-pairwise dispersion correction
with the Becke-Johnson damping scheme (D3BJ)
Cite in your paper:
S.Grimme, S.Ehrlich, L.Goerigk, J Comput Chem, (2011), 32, 1456–1465 
S.Grimme, J.Antony, S.Ehrlich and H.Krieg, J.Chem.Phys., 132, (2010), 154104 
   

----- Orbital basis set information -----
Your calculation utilizes the basis: def2-TZVPPD
   F. Weigend and R. Ahlrichs, Phys. Chem. Chem. Phys. 7, 3297 (2005).
   D. Rappoport and F. Furche, J. Chem. Phys. 133 134105 (2010).

----- AuxC basis set information -----
Your calculation utilizes the auxiliary basis: def2-TZVPPD/C
   A. Hellweg, C. Hattig, S. Hofener and W. Klopper, Theor. Chem. Acc. 117, 587 (2007).

----- AuxJK basis set information -----
Your calculation utilizes the auxiliary basis: def2/JK
   H-Ba, Hf-Rn: F. Weigend, J. Comput. Chem. 29, 167 (2008).

================================================================================
                                        WARNINGS
                       Please study these warnings very carefully!
================================================================================


WARNING: No MP2 level density has been requested!
         To caclulate MP2 level properties use
         %mp2 Density relaxed end
         or
         %mp2 Density unrelaxed end
         Otherwise for double-hybrid DFT only the energy is correct!

WARNING: The frozen-core approximation is turned on by default for 
         the MP2 part of double-hybrid DFT.

INFO   : the flag for use of LIBINT has been found!

================================================================================
                                       INPUT FILE
================================================================================
NAME = 143.in
|  1> #
|  2> # 143 ri-B2PLYP-D3BJ/Def2-TZVPPD
|  3> #
|  4> ! rijk ri-b2plyp d3bj def2-tzvppd def2/jk def2-tzvppd/c grid4 nofinalgrid
|  5> 
|  6> *xyz 0 1
|  7> H          1.52165        0.00105        0.54476
|  8> C         -0.07322       -0.00002       -0.82132
|  9> C         -0.09157        0.00017        1.71374
| 10> H          0.24008        0.90261       -1.36729
| 11> N          0.49648       -0.00048        0.54416
| 12> H          0.26500       -0.88652       -1.37867
| 13> H         -1.19216       -0.00126        1.49873
| 14> H         -1.16627       -0.01555       -0.73412
| 15> *
| 16> 
| 17> %maxcore 5000
| 18> 
| 19> %pal
| 20> nprocs = 24
| 21> end
| 22> 
| 23> 
| 24>                          ****END OF INPUT****
================================================================================

                       ****************************
                       * Single Point Calculation *
                       ****************************

---------------------------------
CARTESIAN COORDINATES (ANGSTROEM)
---------------------------------
  H      1.521650    0.001050    0.544760
  C     -0.073220   -0.000020   -0.821320
  C     -0.091570    0.000170    1.713740
  H      0.240080    0.902610   -1.367290
  N      0.496480   -0.000480    0.544160
  H      0.265000   -0.886520   -1.378670
  H     -1.192160   -0.001260    1.498730
  H     -1.166270   -0.015550   -0.734120

----------------------------
CARTESIAN COORDINATES (A.U.)
----------------------------
  NO LB      ZA    FRAG     MASS         X           Y           Z
   0 H     1.0000    0     1.008    2.875502    0.001984    1.029447
   1 C     6.0000    0    12.011   -0.138366   -0.000038   -1.552070
   2 C     6.0000    0    12.011   -0.173042    0.000321    3.238499
   3 H     1.0000    0     1.008    0.453685    1.705686   -2.583804
   4 N     7.0000    0    14.007    0.938211   -0.000907    1.028313
   5 H     1.0000    0     1.008    0.500777   -1.675280   -2.605309
   6 H     1.0000    0     1.008   -2.252856   -0.002381    2.832189
   7 H     1.0000    0     1.008   -2.203931   -0.029385   -1.387286

--------------------------------
INTERNAL COORDINATES (ANGSTROEM)
--------------------------------
 H      0   0   0     0.000000000000     0.00000000     0.00000000
 C      1   0   0     2.099949053715     0.00000000     0.00000000
 C      1   2   0     1.992233365648    76.50961153     0.00000000
 H      2   1   3     1.100445840466    96.09093801   124.43544680
 N      1   2   3     1.025171317293    40.54806783     0.07838990
 H      2   1   3     1.100415394703    95.53573064   234.04957890
 H      3   1   2     1.121396314021   133.01794355     0.05236432
 H      2   1   3     1.096632720376   134.85206172   358.90346014

---------------------------
INTERNAL COORDINATES (A.U.)
---------------------------
 H      0   0   0     0.000000000000     0.00000000     0.00000000
 C      1   0   0     3.968328606709     0.00000000     0.00000000
 C      1   2   0     3.764775455934    76.50961153     0.00000000
 H      2   1   3     2.079541263694    96.09093801   124.43544680
 N      1   2   3     1.937293030035    40.54806783     0.07838990
 H      2   1   3     2.079483729540    95.53573064   234.04957890
 H      3   1   2     2.119131921089   133.01794355     0.05236432
 H      2   1   3     2.072335511008   134.85206172   358.90346014

---------------------
BASIS SET INFORMATION
---------------------
There are 3 groups of distinct atoms

 Group   1 Type H   : 5s3p1d contracted to 3s3p1d pattern {311/111/1}
 Group   2 Type C   : 12s6p3d1f contracted to 6s3p3d1f pattern {621111/411/111/1}
 Group   3 Type N   : 12s6p3d1f contracted to 6s3p3d1f pattern {621111/411/111/1}

Atom   0H    basis set group =>   1
Atom   1C    basis set group =>   2
Atom   2C    basis set group =>   2
Atom   3H    basis set group =>   1
Atom   4N    basis set group =>   3
Atom   5H    basis set group =>   1
Atom   6H    basis set group =>   1
Atom   7H    basis set group =>   1
---------------------------------
AUXILIARY/C BASIS SET INFORMATION
---------------------------------
There are 3 groups of distinct atoms

 Group   1 Type H   : 5s4p3d1f contracted to 5s4p3d1f pattern {11111/1111/111/1}
 Group   2 Type C   : 9s7p6d4f1g contracted to 9s7p5d4f1g pattern {111111111/1111111/21111/1111/1}
 Group   3 Type N   : 9s7p6d4f1g contracted to 9s7p5d4f1g pattern {111111111/1111111/21111/1111/1}

Atom   0H    basis set group =>   1
Atom   1C    basis set group =>   2
Atom   2C    basis set group =>   2
Atom   3H    basis set group =>   1
Atom   4N    basis set group =>   3
Atom   5H    basis set group =>   1
Atom   6H    basis set group =>   1
Atom   7H    basis set group =>   1
----------------------------------
AUXILIARY/JK BASIS SET INFORMATION
----------------------------------
There are 3 groups of distinct atoms

 Group   1 Type H   : 4s2p2d contracted to 2s2p2d pattern {31/11/11}
 Group   2 Type C   : 14s10p6d2f1g contracted to 10s8p5d1f1g pattern {5111111111/31111111/21111/2/1}
 Group   3 Type N   : 14s10p6d2f1g contracted to 10s8p4d2f1g pattern {5111111111/31111111/3111/11/1}

Atom   0H    basis set group =>   1
Atom   1C    basis set group =>   2
Atom   2C    basis set group =>   2
Atom   3H    basis set group =>   1
Atom   4N    basis set group =>   3
Atom   5H    basis set group =>   1
Atom   6H    basis set group =>   1
Atom   7H    basis set group =>   1


           ************************************************************
           *        Program running with 24 parallel MPI-processes    *
           *              working on a common directory               *
           ************************************************************
------------------------------------------------------------------------------
                           ORCA GTO INTEGRAL CALCULATION
                           -- RI-GTO INTEGRALS CHOSEN --
------------------------------------------------------------------------------

                         BASIS SET STATISTICS AND STARTUP INFO

Gaussian basis set:
 # of primitive gaussian shells          ...  111
 # of primitive gaussian functions       ...  251
 # of contracted shells                  ...   74
 # of contracted basis functions         ...  196
 Highest angular momentum                ...    3
 Maximum contraction depth               ...    6
Auxiliary gaussian basis set:
 # of primitive gaussian shells          ...  139
 # of primitive gaussian functions       ...  391
 # of contracted shells                  ...  105
 # of contracted aux-basis functions     ...  317
 Highest angular momentum                ...    4
 Maximum contraction depth               ...    5
Ratio of auxiliary to basis functions    ...  1.62
Integral package used                  ... LIBINT
 One Electron integrals                  ... done
 Ordering auxiliary basis shells         ... done
 Integral threshhold             Thresh  ...  1.000e-10
 Primitive cut-off               TCut    ...  1.000e-11
 Pre-screening matrix                    ... done
 Shell pair data                         ... 
 Ordering of the shell pairs             ... done (   0.001 sec) 2756 of 2775 pairs
 Determination of significant pairs      ... done (   0.000 sec)
 Creation of shell pair data             ... done (   0.000 sec)
 Storage of shell pair data              ... done (   0.043 sec)
 Shell pair data done in (   0.044 sec)
 Computing two index integrals           ... done
 Cholesky decomposition of the V-matrix  ... done


Timings:
 Total evaluation time                   ...   0.214 sec (  0.004 min)
 One electron matrix time                ...   0.032 sec (  0.001 min) = 14.9%
 Schwartz matrix evaluation time         ...   0.110 sec (  0.002 min) = 51.4%
 Two index repulsion integral time       ...   0.002 sec (  0.000 min) =  0.9%
 Cholesky decomposition of V             ...   0.002 sec (  0.000 min) =  0.9%
 Three index repulsion integral time     ...   0.000 sec (  0.000 min) =  0.0%



           ************************************************************
           *        Program running with 24 parallel MPI-processes    *
           *              working on a common directory               *
           ************************************************************
-------------------------------------------------------------------------------
                                 ORCA SCF
-------------------------------------------------------------------------------

------------
SCF SETTINGS
------------
Hamiltonian:
 Density Functional     Method          .... DFT(GTOs)
 Exchange Functional    Exchange        .... B88
   X-Alpha parameter    XAlpha          ....  0.666667
   Becke's b parameter  XBeta           ....  0.004200
 Correlation Functional Correlation     .... LYP
 LDA part of GGA corr.  LDAOpt          .... VWN-3
 Gradients option       PostSCFGGA      .... off
 Hybrid DFT is turned on
   Fraction HF Exchange ScalHFX         ....  0.530000
   Scaling of DF-GGA-X  ScalDFX         ....  0.470000
   Scaling of DF-GGA-C  ScalDFC         ....  0.730000
   Scaling of DF-LDA-C  ScalLDAC        ....  0.730000
   Perturbative correction              ....  0.270000
   Density functional embedding theory  .... OFF
 RI-approximation to the Coulomb term is turned on
   Number of auxiliary basis functions  .... 317
   RI-JK (J+K treated both via RI)      .... on


General Settings:
 Integral files         IntName         .... 143
 Hartree-Fock type      HFTyp           .... RHF
 Total Charge           Charge          ....    0
 Multiplicity           Mult            ....    1
 Number of Electrons    NEL             ....   24
 Basis Dimension        Dim             ....  196
 Nuclear Repulsion      ENuc            ....     71.4997930851 Eh

Convergence Acceleration:
 DIIS                   CNVDIIS         .... on
   Start iteration      DIISMaxIt       ....    12
   Startup error        DIISStart       ....  0.200000
   # of expansion vecs  DIISMaxEq       ....     5
   Bias factor          DIISBfac        ....   1.050
   Max. coefficient     DIISMaxC        ....  10.000
 Newton-Raphson         CNVNR           .... off
 SOSCF                  CNVSOSCF        .... on
   Start iteration      SOSCFMaxIt      ....   150
   Startup grad/error   SOSCFStart      ....  0.003300
 Level Shifting         CNVShift        .... on
   Level shift para.    LevelShift      ....    0.2500
   Turn off err/grad.   ShiftErr        ....    0.0010
 Zerner damping         CNVZerner       .... off
 Static damping         CNVDamp         .... on
   Fraction old density DampFac         ....    0.7000
   Max. Damping (<1)    DampMax         ....    0.9800
   Min. Damping (>=0)   DampMin         ....    0.0000
   Turn off err/grad.   DampErr         ....    0.1000
 Fernandez-Rico         CNVRico         .... off

SCF Procedure:
 Maximum # iterations   MaxIter         ....   125
 SCF integral mode      SCFMode         .... Direct
   Integral package                     .... LIBINT
 Reset frequency        DirectResetFreq ....    20
 Integral Threshold     Thresh          ....  1.000e-10 Eh
 Primitive CutOff       TCut            ....  1.000e-11 Eh

Convergence Tolerance:
 Convergence Check Mode ConvCheckMode   .... Total+1el-Energy
 Convergence forced     ConvForced      .... 0
 Energy Change          TolE            ....  1.000e-06 Eh
 1-El. energy change                    ....  1.000e-03 Eh
 Orbital Gradient       TolG            ....  5.000e-05
 Orbital Rotation angle TolX            ....  5.000e-05
 DIIS Error             TolErr          ....  1.000e-06


Diagonalization of the overlap matrix:
Smallest eigenvalue                        ... 2.643e-05
Time for diagonalization                   ...    0.007 sec
Threshold for overlap eigenvalues          ... 1.000e-08
Number of eigenvalues below threshold      ... 0
Time for construction of square roots      ...    0.006 sec
Total time needed                          ...    0.013 sec

-------------------
DFT GRID GENERATION
-------------------

General Integration Accuracy     IntAcc      ...  4.670
Radial Grid Type                 RadialGrid  ... Gauss-Chebyshev
Angular Grid (max. acc.)         AngularGrid ... Lebedev-302
Angular grid pruning method      GridPruning ... 3 (G Style)
Weight generation scheme         WeightScheme... Becke
Basis function cutoff            BFCut       ...    1.0000e-10
Integration weight cutoff        WCut        ...    1.0000e-14
Grids for H and He will be reduced by one unit

# of grid points (after initial pruning)     ...  35606 (   0.0 sec)
# of grid points (after weights+screening)   ...  33959 (   0.0 sec)
nearest neighbour list constructed           ...    0.0 sec
Grid point re-assignment to atoms done       ...    0.0 sec
Grid point division into batches done        ...    0.1 sec
Reduced shell lists constructed in    0.2 sec

Total number of grid points                  ...    33959
Total number of batches                      ...      535
Average number of points per batch           ...       63
Average number of grid points per atom       ...     4245
Average number of shells per batch           ...    32.46 (43.86%)
Average number of basis functions per batch  ...    81.88 (41.77%)
Average number of large shells per batch     ...    25.12 (77.41%)
Average number of large basis fcns per batch ...    61.96 (75.67%)
Average number of aux-shells per batch       ...    32.46 (30.91%)
Average number of aux functions per batch    ...    81.88 (25.83%)
Maximum spatial batch extension              ...  14.23, 16.05, 17.07 au
Average spatial batch extension              ...   0.32,  0.36,  0.34 au

Time for grid setup =    0.256 sec

------------------------------
INITIAL GUESS: MODEL POTENTIAL
------------------------------
Loading Hartree-Fock densities                     ... done
Calculating cut-offs                               ... done
Setting up the integral package                    ... done
Initializing the effective Hamiltonian             ... done
Starting the Coulomb interaction                   ... done (   0.0 sec)
Reading the grid                                   ... done
Mapping shells                                     ... done
Starting the XC term evaluation                    ... done (   0.0 sec)
  promolecular density results
     # of electrons  =     23.997570036
     EX              =    -18.278261990
     EC              =     -0.243496098
     EX+EC           =    -18.521758088
Transforming the Hamiltonian                       ... done (   0.0 sec)
Diagonalizing the Hamiltonian                      ... done (   0.0 sec)
Back transforming the eigenvectors                 ... done (   0.0 sec)
Now organizing SCF variables                       ... done
                      ------------------
                      INITIAL GUESS DONE (   0.4 sec)
                      ------------------
--------------
SCF ITERATIONS
--------------
ITER       Energy         Delta-E        Max-DP      RMS-DP      [F,P]     Damp
  0   -133.5441313386   0.000000000000 0.02944153  0.00075697  0.1742173 0.7000
  1   -133.5025609057   0.041570432898 0.02408853  0.00076819  0.1425478 0.7000
                               ***Turning on DIIS***
  2   -133.5279292137  -0.025368308029 0.04857030  0.00174465  0.0746761 0.0000
  3   -133.6162290079  -0.088299794235 0.02481717  0.00066234  0.0831069 0.0000
  4   -133.6373343430  -0.021105335053 0.00873148  0.00029593  0.0282970 0.0000
  5   -133.6399295738  -0.002595230818 0.00592513  0.00015118  0.0137258 0.0000
  6   -133.6403717903  -0.000442216467 0.00544198  0.00010072  0.0042076 0.0000
                      *** Initiating the SOSCF procedure ***
                           *** Shutting down DIIS ***
                      *** Re-Reading the Fockian *** 
                      *** Removing any level shift *** 
ITER      Energy       Delta-E        Grad      Rot      Max-DP    RMS-DP
  7   -133.64044235  -0.0000705601  0.000486  0.000486  0.003647  0.000060
  8   -133.64045091  -0.0000085608  0.000244  0.000653  0.003054  0.000053
  9   -133.64045219  -0.0000012807  0.000082  0.000210  0.001102  0.000018
                 **** Energy Check signals convergence ****
              ***Rediagonalizing the Fockian in SOSCF/NRSCF***

               *****************************************************
               *                     SUCCESS                       *
               *           SCF CONVERGED AFTER  10 CYCLES          *
               *****************************************************


----------------
TOTAL SCF ENERGY
----------------

Total Energy       :         -133.64045240 Eh           -3636.54159 eV

Components:
Nuclear Repulsion  :           71.49979309 Eh            1945.60828 eV
Electronic Energy  :         -205.14024549 Eh           -5582.14987 eV
One Electron Energy:         -320.48799874 Eh           -8720.92181 eV
Two Electron Energy:          115.34775325 Eh            3138.77194 eV

Virial components:
Potential Energy   :         -266.68774622 Eh           -7256.94251 eV
Kinetic Energy     :          133.04729381 Eh            3620.40092 eV
Virial Ratio       :            2.00445825


DFT components:
N(Alpha)           :       11.999992946042 electrons
N(Beta)            :       11.999992946042 electrons
N(Total)           :       23.999985892085 electrons
E(X)               :       -8.794935214983 Eh       
E(C)               :       -0.565804188117 Eh       
E(XC)              :       -9.360739403100 Eh       
DFET-embed. en.    :        0.000000000000 Eh       

---------------
SCF CONVERGENCE
---------------

  Last Energy change         ...   -2.1076e-07  Tolerance :   1.0000e-06
  Last MAX-Density change    ...    2.1766e-04  Tolerance :   1.0000e-05
  Last RMS-Density change    ...    4.1748e-06  Tolerance :   1.0000e-06
  Last Orbital Gradient      ...    1.7482e-05  Tolerance :   5.0000e-05
  Last Orbital Rotation      ...    3.0605e-05  Tolerance :   5.0000e-05

             **** THE GBW FILE WAS UPDATED (143.gbw) ****
             **** DENSITY FILE WAS UPDATED (143.scfp) ****
             **** ENERGY FILE WAS UPDATED (143.en.tmp) ****
             **** THE GBW FILE WAS UPDATED (143.gbw) ****
             **** DENSITY FILE WAS UPDATED (143.scfp) ****
----------------
ORBITAL ENERGIES
----------------

  NO   OCC          E(Eh)            E(eV) 
   0   2.0000     -14.894806      -405.3083 
   1   2.0000     -10.664807      -290.2041 
   2   2.0000     -10.626301      -289.1564 
   3   2.0000      -1.080057       -29.3898 
   4   2.0000      -0.832717       -22.6594 
   5   2.0000      -0.712778       -19.3957 
   6   2.0000      -0.567657       -15.4467 
   7   2.0000      -0.528411       -14.3788 
   8   2.0000      -0.508117       -13.8266 
   9   2.0000      -0.468182       -12.7399 
  10   2.0000      -0.380230       -10.3466 
  11   2.0000      -0.263917        -7.1816 
  12   0.0000       0.028024         0.7626 
  13   0.0000       0.045570         1.2400 
  14   0.0000       0.057058         1.5526 
  15   0.0000       0.075458         2.0533 
  16   0.0000       0.098910         2.6915 
  17   0.0000       0.110488         3.0065 
  18   0.0000       0.121902         3.3171 
  19   0.0000       0.135273         3.6810 
  20   0.0000       0.146747         3.9932 
  21   0.0000       0.173344         4.7169 
  22   0.0000       0.174144         4.7387 
  23   0.0000       0.194609         5.2956 
  24   0.0000       0.212912         5.7936 
  25   0.0000       0.232606         6.3295 
  26   0.0000       0.236579         6.4376 
  27   0.0000       0.262417         7.1407 
  28   0.0000       0.264294         7.1918 
  29   0.0000       0.278397         7.5756 
  30   0.0000       0.289716         7.8836 
  31   0.0000       0.294367         8.0101 
  32   0.0000       0.295613         8.0440 
  33   0.0000       0.307656         8.3717 
  34   0.0000       0.313514         8.5311 
  35   0.0000       0.326699         8.8899 
  36   0.0000       0.340756         9.2724 
  37   0.0000       0.343683         9.3521 
  38   0.0000       0.353669         9.6238 
  39   0.0000       0.355839         9.6829 
  40   0.0000       0.400658        10.9025 
  41   0.0000       0.408634        11.1195 
  42   0.0000       0.413345        11.2477 
  43   0.0000       0.418527        11.3887 
  44   0.0000       0.420535        11.4433 
  45   0.0000       0.439488        11.9591 
  46   0.0000       0.442110        12.0304 
  47   0.0000       0.468652        12.7527 
  48   0.0000       0.487957        13.2780 
  49   0.0000       0.499896        13.6028 
  50   0.0000       0.523493        14.2450 
  51   0.0000       0.543614        14.7925 
  52   0.0000       0.547077        14.8867 
  53   0.0000       0.551508        15.0073 
  54   0.0000       0.554131        15.0787 
  55   0.0000       0.602806        16.4032 
  56   0.0000       0.614763        16.7285 
  57   0.0000       0.662799        18.0357 
  58   0.0000       0.671479        18.2719 
  59   0.0000       0.726179        19.7603 
  60   0.0000       0.743662        20.2361 
  61   0.0000       0.745779        20.2937 
  62   0.0000       0.753855        20.5134 
  63   0.0000       0.790658        21.5149 
  64   0.0000       0.808975        22.0133 
  65   0.0000       0.813139        22.1266 
  66   0.0000       0.827122        22.5071 
  67   0.0000       0.902174        24.5494 
  68   0.0000       0.938475        25.5372 
  69   0.0000       0.951563        25.8934 
  70   0.0000       0.976063        26.5600 
  71   0.0000       1.009295        27.4643 
  72   0.0000       1.068211        29.0675 
  73   0.0000       1.071558        29.1586 
  74   0.0000       1.090079        29.6626 
  75   0.0000       1.113933        30.3117 
  76   0.0000       1.166416        31.7398 
  77   0.0000       1.169132        31.8137 
  78   0.0000       1.179869        32.1059 
  79   0.0000       1.206225        32.8231 
  80   0.0000       1.243191        33.8290 
  81   0.0000       1.257357        34.2144 
  82   0.0000       1.273103        34.6429 
  83   0.0000       1.318176        35.8694 
  84   0.0000       1.325779        36.0763 
  85   0.0000       1.375645        37.4332 
  86   0.0000       1.402234        38.1567 
  87   0.0000       1.420631        38.6573 
  88   0.0000       1.461913        39.7807 
  89   0.0000       1.490311        40.5534 
  90   0.0000       1.559337        42.4317 
  91   0.0000       1.635454        44.5030 
  92   0.0000       1.642895        44.7055 
  93   0.0000       1.651145        44.9299 
  94   0.0000       1.678634        45.6780 
  95   0.0000       1.683854        45.8200 
  96   0.0000       1.771975        48.2179 
  97   0.0000       1.800695        48.9994 
  98   0.0000       1.870583        50.9011 
  99   0.0000       1.876159        51.0529 
 100   0.0000       1.884086        51.2686 
 101   0.0000       1.958591        53.2960 
 102   0.0000       2.016410        54.8693 
 103   0.0000       2.108752        57.3821 
 104   0.0000       2.156995        58.6948 
 105   0.0000       2.208792        60.1043 
 106   0.0000       2.430659        66.1416 
 107   0.0000       2.495943        67.9181 
 108   0.0000       2.611577        71.0646 
 109   0.0000       2.660915        72.4072 
 110   0.0000       2.753438        74.9249 
 111   0.0000       2.774949        75.5102 
 112   0.0000       2.844714        77.4086 
 113   0.0000       2.847223        77.4769 
 114   0.0000       2.868090        78.0447 
 115   0.0000       2.925250        79.6001 
 116   0.0000       2.950410        80.2847 
 117   0.0000       2.964422        80.6660 
 118   0.0000       2.979468        81.0754 
 119   0.0000       3.037762        82.6617 
 120   0.0000       3.082620        83.8823 
 121   0.0000       3.099500        84.3417 
 122   0.0000       3.127191        85.0952 
 123   0.0000       3.138675        85.4077 
 124   0.0000       3.166276        86.1588 
 125   0.0000       3.221469        87.6606 
 126   0.0000       3.268975        88.9533 
 127   0.0000       3.274115        89.0932 
 128   0.0000       3.296805        89.7106 
 129   0.0000       3.338656        90.8495 
 130   0.0000       3.367663        91.6388 
 131   0.0000       3.393649        92.3459 
 132   0.0000       3.426029        93.2270 
 133   0.0000       3.444834        93.7387 
 134   0.0000       3.446704        93.7896 
 135   0.0000       3.547057        96.5203 
 136   0.0000       3.566570        97.0513 
 137   0.0000       3.591746        97.7364 
 138   0.0000       3.658125        99.5426 
 139   0.0000       3.665616        99.7465 
 140   0.0000       3.690078       100.4121 
 141   0.0000       3.793121       103.2161 
 142   0.0000       3.807624       103.6107 
 143   0.0000       3.837788       104.4315 
 144   0.0000       3.841758       104.5396 
 145   0.0000       3.943527       107.3088 
 146   0.0000       4.007394       109.0467 
 147   0.0000       4.015764       109.2745 
 148   0.0000       4.032629       109.7334 
 149   0.0000       4.113034       111.9213 
 150   0.0000       4.120683       112.1295 
 151   0.0000       4.146616       112.8352 
 152   0.0000       4.159738       113.1922 
 153   0.0000       4.224438       114.9528 
 154   0.0000       4.234416       115.2243 
 155   0.0000       4.245287       115.5201 
 156   0.0000       4.261574       115.9633 
 157   0.0000       4.282010       116.5194 
 158   0.0000       4.361602       118.6852 
 159   0.0000       4.383876       119.2913 
 160   0.0000       4.396457       119.6337 
 161   0.0000       4.526781       123.1800 
 162   0.0000       4.591110       124.9305 
 163   0.0000       4.594843       125.0320 
 164   0.0000       4.733260       128.7985 
 165   0.0000       4.826520       131.3363 
 166   0.0000       4.827286       131.3571 
 167   0.0000       4.877115       132.7130 
 168   0.0000       4.929985       134.1517 
 169   0.0000       4.983209       135.6000 
 170   0.0000       5.047351       137.3454 
 171   0.0000       5.087820       138.4466 
 172   0.0000       5.178697       140.9195 
 173   0.0000       5.188967       141.1990 
 174   0.0000       5.254862       142.9921 
 175   0.0000       5.268314       143.3581 
 176   0.0000       5.293454       144.0422 
 177   0.0000       5.396136       146.8363 
 178   0.0000       5.400764       146.9622 
 179   0.0000       5.451664       148.3473 
 180   0.0000       5.465144       148.7141 
 181   0.0000       5.502079       149.7192 
 182   0.0000       5.540650       150.7688 
 183   0.0000       5.600908       152.4085 
 184   0.0000       5.731882       155.9724 
 185   0.0000       5.746825       156.3791 
 186   0.0000       5.756207       156.6344 
 187   0.0000       5.775731       157.1656 
 188   0.0000       5.815600       158.2505 
 189   0.0000       5.943536       161.7318 
 190   0.0000       6.354067       172.9030 
 191   0.0000       6.405682       174.3075 
 192   0.0000       6.830480       185.8668 
 193   0.0000      23.067504       627.6987 
 194   0.0000      24.014872       653.4779 
 195   0.0000      33.418928       909.3753 

                    ********************************
                    * MULLIKEN POPULATION ANALYSIS *
                    ********************************

-----------------------
MULLIKEN ATOMIC CHARGES
-----------------------
   0 H :    0.103859
   1 C :   -0.215668
   2 C :   -0.110130
   3 H :    0.107752
   4 N :   -0.071618
   5 H :    0.106730
   6 H :   -0.030356
   7 H :    0.109432
Sum of atomic charges:   -0.0000000

--------------------------------
MULLIKEN REDUCED ORBITAL CHARGES
--------------------------------
  0 H s       :     0.821514  s :     0.821514
      pz      :     0.007888  p :     0.069721
      px      :     0.029228
      py      :     0.032604
      dz2     :     0.000552  d :     0.004907
      dxz     :     0.001385
      dyz     :     0.000012
      dx2y2   :     0.001196
      dxy     :     0.001761
  1 C s       :     3.222735  s :     3.222735
      pz      :     0.821504  p :     2.886571
      px      :     1.020702
      py      :     1.044364
      dz2     :     0.021372  d :     0.100228
      dxz     :     0.002132
      dyz     :     0.051863
      dx2y2   :     0.026832
      dxy     :    -0.001970
      f0      :     0.001579  f :     0.006134
      f+1     :     0.001501
      f-1     :     0.001098
      f+2     :     0.000698
      f-2     :     0.000638
      f+3     :     0.000563
      f-3     :     0.000057
  2 C s       :     3.556100  s :     3.556100
      pz      :     1.090528  p :     2.458080
      px      :     0.941631
      py      :     0.425921
      dz2     :     0.020590  d :     0.088175
      dxz     :     0.016158
      dyz     :     0.030970
      dx2y2   :     0.015073
      dxy     :     0.005384
      f0      :     0.001717  f :     0.007774
      f+1     :     0.002030
      f-1     :     0.001751
      f+2     :     0.000623
      f-2     :     0.001234
      f+3     :     0.000321
      f-3     :     0.000098
  3 H s       :     0.853496  s :     0.853496
      pz      :     0.017616  p :     0.036819
      px      :     0.007506
      py      :     0.011696
      dz2     :     0.000520  d :     0.001933
      dxz     :     0.000190
      dyz     :     0.000426
      dx2y2   :     0.000407
      dxy     :     0.000390
  4 N s       :     3.339117  s :     3.339117
      pz      :     1.021507  p :     3.581050
      px      :     1.072650
      py      :     1.486893
      dz2     :     0.083158  d :     0.147693
      dxz     :     0.029554
      dyz     :     0.007657
      dx2y2   :     0.025856
      dxy     :     0.001468
      f0      :     0.001118  f :     0.003758
      f+1     :     0.000747
      f-1     :     0.000670
      f+2     :     0.000562
      f-2     :     0.000248
      f+3     :     0.000271
      f-3     :     0.000141
  5 H s       :     0.854756  s :     0.854756
      pz      :     0.017725  p :     0.036582
      px      :     0.007681
      py      :     0.011176
      dz2     :     0.000532  d :     0.001932
      dxz     :     0.000199
      dyz     :     0.000413
      dx2y2   :     0.000418
      dxy     :     0.000369
  6 H s       :     0.959298  s :     0.959298
      pz      :     0.017192  p :     0.068978
      px      :     0.043514
      py      :     0.008272
      dz2     :     0.000287  d :     0.002079
      dxz     :     0.001013
      dyz     :     0.000003
      dx2y2   :     0.000428
      dxy     :     0.000350
  7 H s       :     0.869608  s :     0.869608
      pz      :     0.001941  p :     0.018929
      px      :     0.017732
      py      :    -0.000744
      dz2     :     0.000149  d :     0.002031
      dxz     :     0.000832
      dyz     :     0.000026
      dx2y2   :     0.000354
      dxy     :     0.000669


                     *******************************
                     * LOEWDIN POPULATION ANALYSIS *
                     *******************************

----------------------
LOEWDIN ATOMIC CHARGES
----------------------
   0 H :   -0.059780
   1 C :    0.138335
   2 C :    0.081002
   3 H :   -0.004863
   4 N :   -0.030154
   5 H :   -0.004902
   6 H :   -0.111329
   7 H :   -0.008310

-------------------------------
LOEWDIN REDUCED ORBITAL CHARGES
-------------------------------
  0 H s       :     0.635641  s :     0.635641
      pz      :     0.100930  p :     0.368072
      px      :     0.164411
      py      :     0.102731
      dz2     :     0.005766  d :     0.056067
      dxz     :     0.015507
      dyz     :     0.000001
      dx2y2   :     0.015261
      dxy     :     0.019532
  1 C s       :     2.653075  s :     2.653075
      pz      :     0.793554  p :     2.626654
      px      :     0.901520
      py      :     0.931580
      dz2     :     0.131341  d :     0.538840
      dxz     :     0.103737
      dyz     :     0.180390
      dx2y2   :     0.094939
      dxy     :     0.028433
      f0      :     0.010023  f :     0.043096
      f+1     :     0.010626
      f-1     :     0.005958
      f+2     :     0.004419
      f-2     :     0.006262
      f+3     :     0.004625
      f-3     :     0.001183
  2 C s       :     2.968141  s :     2.968141
      pz      :     1.138676  p :     2.487497
      px      :     0.955733
      py      :     0.393088
      dz2     :     0.138029  d :     0.411268
      dxz     :     0.106200
      dyz     :     0.074679
      dx2y2   :     0.071718
      dxy     :     0.020642
      f0      :     0.014750  f :     0.052092
      f+1     :     0.013391
      f-1     :     0.009214
      f+2     :     0.005471
      f-2     :     0.006762
      f+3     :     0.002292
      f-3     :     0.000212
  3 H s       :     0.714633  s :     0.714633
      pz      :     0.072874  p :     0.262369
      px      :     0.074372
      py      :     0.115122
      dz2     :     0.004789  d :     0.027862
      dxz     :     0.002777
      dyz     :     0.007544
      dx2y2   :     0.006890
      dxy     :     0.005862
  4 N s       :     2.867513  s :     2.867513
      pz      :     1.131293  p :     3.382323
      px      :     1.078384
      py      :     1.172647
      dz2     :     0.322561  d :     0.765670
      dxz     :     0.211988
      dyz     :     0.119743
      dx2y2   :     0.101018
      dxy     :     0.010361
      f0      :     0.005863  f :     0.014648
      f+1     :     0.002629
      f-1     :     0.001266
      f+2     :     0.002644
      f-2     :     0.001017
      f+3     :     0.001115
      f-3     :     0.000115
  5 H s       :     0.714652  s :     0.714652
      pz      :     0.073438  p :     0.262390
      px      :     0.075148
      py      :     0.113803
      dz2     :     0.004878  d :     0.027860
      dxz     :     0.002977
      dyz     :     0.007424
      dx2y2   :     0.006895
      dxy     :     0.005686
  6 H s       :     0.755548  s :     0.755548
      pz      :     0.124896  p :     0.329696
      px      :     0.167154
      py      :     0.037646
      dz2     :     0.003074  d :     0.026085
      dxz     :     0.011761
      dyz     :     0.000026
      dx2y2   :     0.007738
      dxy     :     0.003486
  7 H s       :     0.702390  s :     0.702390
      pz      :     0.071207  p :     0.277250
      px      :     0.131886
      py      :     0.074157
      dz2     :     0.002956  d :     0.028670
      dxz     :     0.008046
      dyz     :     0.000202
      dx2y2   :     0.008245
      dxy     :     0.009222


                      *****************************
                      * MAYER POPULATION ANALYSIS *
                      *****************************

  NA   - Mulliken gross atomic population
  ZA   - Total nuclear charge
  QA   - Mulliken gross atomic charge
  VA   - Mayer's total valence
  BVA  - Mayer's bonded valence
  FA   - Mayer's free valence

  ATOM       NA         ZA         QA         VA         BVA        FA
  0 H      0.8961     1.0000     0.1039     1.0828     1.0828    -0.0000
  1 C      6.2157     6.0000    -0.2157     3.8994     3.8994    -0.0000
  2 C      6.1101     6.0000    -0.1101     2.7200     2.7200     0.0000
  3 H      0.8922     1.0000     0.1078     1.0400     1.0400    -0.0000
  4 N      7.0716     7.0000    -0.0716     3.4954     3.4954    -0.0000
  5 H      0.8933     1.0000     0.1067     1.0381     1.0381    -0.0000
  6 H      1.0304     1.0000    -0.0304     1.0782     1.0782     0.0000
  7 H      0.8906     1.0000     0.1094     0.9757     0.9757     0.0000

  Mayer bond orders larger than 0.100000
B(  0-H ,  4-N ) :   1.0306 B(  1-C ,  3-H ) :   1.0116 B(  1-C ,  4-N ) :   0.8401 
B(  1-C ,  5-H ) :   1.0112 B(  1-C ,  7-H ) :   0.9863 B(  2-C ,  4-N ) :   1.5886 
B(  2-C ,  6-H ) :   1.0327 

-------
TIMINGS
-------

Total SCF time: 0 days 0 hours 0 min 2 sec 

Total time                  ....       2.429 sec
Sum of individual times     ....       2.282 sec  ( 94.0%)

Fock matrix formation       ....       1.818 sec  ( 74.8%)
  XC integration            ....       0.370 sec  ( 20.3% of F)
    Basis function eval.    ....       0.073 sec  ( 19.8% of XC)
    Density eval.           ....       0.058 sec  ( 15.6% of XC)
    XC-Functional eval.     ....       0.013 sec  (  3.4% of XC)
    XC-Potential eval.      ....       0.114 sec  ( 30.9% of XC)
Diagonalization             ....       0.043 sec  (  1.8%)
Density matrix formation    ....       0.008 sec  (  0.3%)
Population analysis         ....       0.007 sec  (  0.3%)
Initial guess               ....       0.125 sec  (  5.1%)
Orbital Transformation      ....       0.000 sec  (  0.0%)
Orbital Orthonormalization  ....       0.000 sec  (  0.0%)
DIIS solution               ....       0.017 sec  (  0.7%)
SOSCF solution              ....       0.009 sec  (  0.4%)
Grid generation             ....       0.256 sec  ( 10.6%)


           ************************************************************
           *        Program running with 24 parallel MPI-processes    *
           *              working on a common directory               *
           ************************************************************

------------------------------------------------------------------------------
                                ORCA  MP2 
------------------------------------------------------------------------------

Freezing NCore=6 chemical core electrons

-------------
RI-MP2 ENERGY
-------------
Dimension of the basis                    ...  196
Memory devoted to MP2                     ... 5000 MB   
Data format for buffers                   ... DOUBLE
Compression type for matrix containers    ... UNCOMPRESSED
Overall scaling of the MP2 energy         ...   2.700e-01
Calculating two index integrals           ... done (    0.002 sec)
Cholesky decomposition of V**-1           ... done (    0.018 sec)

-----------------
RI-TRANSFORMATION (AUX index driven)
-----------------

Dimension of the orbital-basis         ... 196
Dimension of the aux-basis             ... 471
Transformation of internal/external MOs...    3-  11 to   12- 195
Number Format for Storage              ... Double (8 Byte)
Integral mode                          ... Direct

First Phase: integral generation and transformation of MO indices
  Aux angular momentum 0               ... done (    0.003 sec)
  Aux angular momentum 1               ... done (    0.003 sec)
  Aux angular momentum 2               ... done (    0.005 sec)
  Aux angular momentum 3               ... done (    0.004 sec)
  Aux angular momentum 4               ... done (    0.005 sec)
Closing buffer VIA ( 0.01 GB; CompressionRatio= 1.00)
  Phase 1 completed in     0.124 sec
Second Phase: sorting and transformation of aux index

IA-Transformation
Memory available                       ... 4996 MB 
Max. # MO pairs treated in a batch     ... 1    
# of internal orbitals                 ... 9
# batches for internal orbitals        ... 1
Closing buffer IAV ( 0.00 GB; CompressionRatio= 1.00)
(ia|v) transformation done in     0.006 sec

  Phase 2 completed in     0.012 sec
RI-Integral transformation completed in     0.137 sec
Opening buffers                              ... done

Starting loop over batches of integrals:

Operator 0  - window                       ... (  3- 11)x( 12-195)
Operator 0  - Memory available             ...  5000 MB
Operator 0  - Memory needed per MO         ...   0.7 MB
Operator 0  - Number of orbitals per batch ... 1
Operator 0  - Number of batches            ... 1

OPERATOR  0   PASS   0:  MOs     3 ...    3 +    4 ...    4 +    5 ...    5 +    6 ...    6
                            +    7 ...    7 +    8 ...    8 +    9 ...    9 +   10 ...   10
                            +   11 ...   11
  Reading integrals       ... ok
Time spent in pair loops =     0.003 sec
Deleting buffer (Ka|jb)[aa] ...done

-----------------------------------------------
 RI-MP2 CORRELATION ENERGY:     -0.176460123 Eh
-----------------------------------------------


-------
TIMINGS
-------

Total time                :    0.182 sec
Integral trafo            :    0.150 sec ( 82.5%)
I/O of integrals          :    0.001 sec (  0.3%)
K(i,j) Operators          :    0.001 sec (  0.3%)
T(i,j) pair energies      :    0.000 sec (  0.1%)
V-calculation             :    0.002 sec (  1.4%)
V**(-1/2)                 :    0.018 sec (  9.7%)
Gamma(ia|P)               :    0.000 sec (  0.0%)
Gamma-Trafo               :    0.000 sec (  0.0%)
D(virtual)                :    0.000 sec (  0.0%)
D(internal)               :    0.000 sec (  0.0%)
W(virtual)                :    0.000 sec (  0.0%)
W(internal)               :    0.000 sec (  0.0%)
L(virtual)                :    0.000 sec (  0.0%)
L(internal)               :    0.000 sec (  0.0%)
G(D)                      :    0.000 sec (  0.0%)
G(Z)                      :    0.000 sec (  0.0%)
Z-Vector Solution         :    0.000 sec (  0.0%)
Z-Vector Solution         :    0.000 sec (  0.0%)
3-Index Derivative 
+ Separable RIJ part      :    0.000 sec (  0.0%)
2-Index Derivative 
+ Separable RIJ part      :    0.000 sec (  0.0%)
Separable Gradient (X)    :    0.000 sec (  0.0%)


---------------------------------------
MP2 TOTAL ENERGY:     -133.816912526 Eh
---------------------------------------


-------------------------------------------------------------------------------
                          DFT DISPERSION CORRECTION                            
                                                                               
                              DFTD3 V3.1  Rev 1                                
                          USING Becke-Johnson damping                          
-------------------------------------------------------------------------------
The B2PLYP functional is recognized
Active option DFTDOPT                   ...         4   

molecular C6(AA) [au] = 501.577977 


            DFT-D V3
 parameters
 s6 scaling factor         :     0.6400 
 a1 scaling factor         :     0.3065 
 s8 scaling factor         :     0.9147 
 a2 scaling factor         :     5.0570 
 ad hoc parameters k1-k3   :    16.0000     1.3333    -4.0000 

 Edisp/kcal,au: -1.847516792346  -0.002944205102 
 E6   /kcal   :  -1.099843579 
 E8   /kcal   :  -0.747673214 
 % E8         :  40.469088921 

-------------------------   ----------------
Dispersion correction           -0.002944205
-------------------------   ----------------


-------------------------   --------------------
FINAL SINGLE POINT ENERGY      -133.819856731292
-------------------------   --------------------


                            ***************************************
                            *     ORCA property calculations      *
                            ***************************************


  WARNING: The energy has been calculated at the MP2 level but the densities
           used in the property calculations are still SCF densities
           MP2 response densities have not been calculated 
           use %mp2 Density relaxed end
           or  %mp2 Density unrelaxed end

                                    ---------------------
                                    Active property flags
                                    ---------------------
   (+) Dipole Moment


------------------------------------------------------------------------------
                       ORCA ELECTRIC PROPERTIES CALCULATION
------------------------------------------------------------------------------

Dipole Moment Calculation                       ... on
Quadrupole Moment Calculation                   ... off
Polarizability Calculation                      ... off
GBWName                                         ... 143.gbw
Electron density file                           ... 143.scfp
The origin for moment calculation is the CENTER OF MASS  = ( 0.203612, -0.000201  0.741202)

-------------
DIPOLE MOMENT
-------------
                                X             Y             Z
Electronic contribution:      0.90776      -0.00078       1.69238
Nuclear contribution   :     -0.81448       0.00081      -3.18683
                        -----------------------------------------
Total Dipole Moment    :      0.09328       0.00003      -1.49445
                        -----------------------------------------
Magnitude (a.u.)       :      1.49736
Magnitude (Debye)      :      3.80599



--------------------
Rotational spectrum 
--------------------
 
Rotational constants in cm-1:     1.686117     0.341111     0.300010 
Rotational constants in MHz : 50548.520534 10226.261318  8994.065933 

 Dipole components along the rotational axes: 
x,y,z [a.u.] :    -1.494453    -0.093282    -0.000031 
x,y,z [Debye]:    -3.798599    -0.237103    -0.000078 

 

Timings for individual modules:

Sum of individual times         ...        4.271 sec (=   0.071 min)
GTO integral calculation        ...        0.683 sec (=   0.011 min)  16.0 %
SCF iterations                  ...        2.864 sec (=   0.048 min)  67.1 %
MP2 module                      ...        0.724 sec (=   0.012 min)  16.9 %
                             ****ORCA TERMINATED NORMALLY****
TOTAL RUN TIME: 0 days 0 hours 0 minutes 4 seconds 897 msec
