
                                 *****************
                                 * O   R   C   A *
                                 *****************

           --- An Ab Initio, DFT and Semiempirical electronic structure package ---

                  #######################################################
                  #                        -***-                        #
                  #          Department of theory and spectroscopy      #
                  #               Directorship: Frank Neese             #
                  #        Max Planck Institute fuer Kohlenforschung    #
                  #                Kaiser Wilhelm Platz 1               #
                  #                 D-45470 Muelheim/Ruhr               #
                  #                      Germany                        #
                  #                                                     #
                  #                  All rights reserved                #
                  #                        -***-                        #
                  #######################################################


                         Program Version 4.2.0 -  RELEASE  -


 With contributions from (in alphabetic order):
   Daniel Aravena         : Magnetic Suceptibility
   Michael Atanasov       : Ab Initio Ligand Field Theory (pilot matlab implementation)
   Alexander A. Auer      : GIAO ZORA, VPT2
   Ute Becker             : Parallelization
   Giovanni Bistoni       : ED, misc. LED, open-shell LED, HFLED
   Martin Brehm           : Molecular dynamics
   Dmytro Bykov           : SCF Hessian
   Vijay G. Chilkuri      : MRCI spin determinant printing, contributions to CSF-ICE
   Dipayan Datta          : RHF DLPNO-CCSD density
   Achintya Kumar Dutta   : EOM-CC, STEOM-CC
   Dmitry Ganyushin       : Spin-Orbit,Spin-Spin,Magnetic field MRCI
   Miquel Garcia          : C-PCM Hessian, Gaussian charge scheme
   Yang Guo               : DLPNO-NEVPT2, CIM, IAO-localization
   Andreas Hansen         : Spin unrestricted coupled pair/coupled cluster methods
   Benjamin Helmich-Paris : CASSCF linear response (MC-RPA)
   Lee Huntington         : MR-EOM, pCC
   Robert Izsak           : Overlap fitted RIJCOSX, COSX-SCS-MP3, EOM
   Christian Kollmar      : KDIIS, OOCD, Brueckner-CCSD(T), CCSD density
   Simone Kossmann        : Meta GGA functionals, TD-DFT gradient, OOMP2, MP2 Hessian
   Martin Krupicka        : AUTO-CI
   Lucas Lang             : DCDCAS
   Dagmar Lenk            : GEPOL surface, SMD
   Dimitrios Liakos       : Extrapolation schemes; Compound Job, initial MDCI parallelization
   Dimitrios Manganas     : Further ROCIS development; embedding schemes
   Dimitrios Pantazis     : SARC Basis sets
   Taras Petrenko         : DFT Hessian,TD-DFT gradient, ASA, ECA, R-Raman, ABS, FL, XAS/XES, NRVS
   Peter Pinski           : DLPNO-MP2, DLPNO-MP2 Gradient
   Christoph Reimann      : Effective Core Potentials
   Marius Retegan         : Local ZFS, SOC
   Christoph Riplinger    : Optimizer, TS searches, QM/MM, DLPNO-CCSD(T), (RO)-DLPNO pert. Triples
   Tobias Risthaus        : Range-separated hybrids, TD-DFT gradient, RPA, STAB
   Michael Roemelt        : Original ROCIS implementation
   Masaaki Saitow         : Open-shell DLPNO-CCSD energy and density
   Barbara Sandhoefer     : DKH picture change effects
   Avijit Sen             : IP-ROCIS
   Kantharuban Sivalingam : CASSCF convergence, NEVPT2, FIC-MRCI
   Bernardo de Souza      : ESD, SOC TD-DFT
   Georgi Stoychev        : AutoAux, RI-MP2 NMR
   Willem Van den Heuvel  : Paramagnetic NMR
   Boris Wezisla          : Elementary symmetry handling
   Frank Wennmohs         : Technical directorship


 We gratefully acknowledge several colleagues who have allowed us to
 interface, adapt or use parts of their codes:
   Stefan Grimme, W. Hujo, H. Kruse,             : VdW corrections, initial TS optimization,
                  C. Bannwarth                     DFT functionals, gCP, sTDA/sTD-DF
   Ed Valeev, F. Pavosevic, A. Kumar             : LibInt (2-el integral package), F12 methods
   Garnet Chan, S. Sharma, J. Yang, R. Olivares  : DMRG
   Ulf Ekstrom                                   : XCFun DFT Library
   Mihaly Kallay                                 : mrcc  (arbitrary order and MRCC methods)
   Andreas Klamt, Michael Diedenhofen            : otool_cosmo (COSMO solvation model)
   Jiri Pittner, Ondrej Demel                    : Mk-CCSD
   Frank Weinhold                                : gennbo (NPA and NBO analysis)
   Christopher J. Cramer and Donald G. Truhlar   : smd solvation model
   Lars Goerigk                                  : TD-DFT with DH, B97 family of functionals
   V. Asgeirsson, H. Jonsson                     : NEB implementation
   FAccTs GmbH                                   : IRC, NEB, NEB-TS, Multilevel, MM, QM/MM, CI optimization
   S Lehtola, MJT Oliveira, MAL Marques          : LibXC Library


 Your calculation uses the libint2 library for the computation of 2-el integrals
 For citations please refer to: http://libint.valeyev.net

 Your ORCA version has been built with support for libXC version: 4.2.3
 For citations please refer to: https://tddft.org/programs/libxc/

 This ORCA versions uses:
   CBLAS   interface :  Fast vector & matrix operations
   LAPACKE interface :  Fast linear algebra routines
   SCALAPACK package :  Parallel linear algebra routines


Your calculation utilizes the atom-pairwise dispersion correction
with the Becke-Johnson damping scheme (D3BJ)
Cite in your paper:
S.Grimme, S.Ehrlich, L.Goerigk, J Comput Chem, (2011), 32, 1456–1465 
S.Grimme, J.Antony, S.Ehrlich and H.Krieg, J.Chem.Phys., 132, (2010), 154104 
   

----- Orbital basis set information -----
Your calculation utilizes the basis: def2-TZVPPD
   F. Weigend and R. Ahlrichs, Phys. Chem. Chem. Phys. 7, 3297 (2005).
   D. Rappoport and F. Furche, J. Chem. Phys. 133 134105 (2010).

----- AuxC basis set information -----
Your calculation utilizes the auxiliary basis: def2-TZVPPD/C
   A. Hellweg, C. Hattig, S. Hofener and W. Klopper, Theor. Chem. Acc. 117, 587 (2007).

----- AuxJK basis set information -----
Your calculation utilizes the auxiliary basis: def2/JK
   H-Ba, Hf-Rn: F. Weigend, J. Comput. Chem. 29, 167 (2008).

================================================================================
                                        WARNINGS
                       Please study these warnings very carefully!
================================================================================


WARNING: No MP2 level density has been requested!
         To caclulate MP2 level properties use
         %mp2 Density relaxed end
         or
         %mp2 Density unrelaxed end
         Otherwise for double-hybrid DFT only the energy is correct!

WARNING: The frozen-core approximation is turned on by default for 
         the MP2 part of double-hybrid DFT.

INFO   : the flag for use of LIBINT has been found!

================================================================================
                                       INPUT FILE
================================================================================
NAME = 168_be.in
|  1> #
|  2> # 168_be ri-B2PLYP-D3BJ/Def2-TZVPPD
|  3> #
|  4> ! rijk ri-b2plyp d3bj def2-tzvppd def2/jk def2-tzvppd/c grid4 nofinalgrid
|  5> 
|  6> *xyz 0 1
|  7> Be         0.00000        0.00000        0.00000
|  8> H          0.00000        0.00000       -1.34402
|  9> H          0.00000        0.00000        1.34402
| 10> *
| 11> 
| 12> %maxcore 5000
| 13> 
| 14> %pal
| 15> nprocs = 24
| 16> end
| 17> 
| 18> 
| 19>                          ****END OF INPUT****
================================================================================

                       ****************************
                       * Single Point Calculation *
                       ****************************

---------------------------------
CARTESIAN COORDINATES (ANGSTROEM)
---------------------------------
  Be     0.000000    0.000000    0.000000
  H      0.000000    0.000000   -1.344020
  H      0.000000    0.000000    1.344020

----------------------------
CARTESIAN COORDINATES (A.U.)
----------------------------
  NO LB      ZA    FRAG     MASS         X           Y           Z
   0 Be    4.0000    0     9.012    0.000000    0.000000    0.000000
   1 H     1.0000    0     1.008    0.000000    0.000000   -2.539830
   2 H     1.0000    0     1.008    0.000000    0.000000    2.539830

--------------------------------
INTERNAL COORDINATES (ANGSTROEM)
--------------------------------
 Be     0   0   0     0.000000000000     0.00000000     0.00000000
 H      1   0   0     1.344020000000     0.00000000     0.00000000
 H      1   2   0     1.344020000000   179.99999915     0.00000000

---------------------------
INTERNAL COORDINATES (A.U.)
---------------------------
 Be     0   0   0     0.000000000000     0.00000000     0.00000000
 H      1   0   0     2.539829718513     0.00000000     0.00000000
 H      1   2   0     2.539829718513   179.99999915     0.00000000

---------------------
BASIS SET INFORMATION
---------------------
There are 2 groups of distinct atoms

 Group   1 Type Be  : 11s5p1d contracted to 5s4p1d pattern {62111/1211/1}
 Group   2 Type H   : 5s3p1d contracted to 3s3p1d pattern {311/111/1}

Atom   0Be   basis set group =>   1
Atom   1H    basis set group =>   2
Atom   2H    basis set group =>   2
---------------------------------
AUXILIARY/C BASIS SET INFORMATION
---------------------------------
There are 2 groups of distinct atoms

 Group   1 Type Be  : 10s7p4d1f contracted to 10s7p4d1f pattern {1111111111/1111111/1111/1}
 Group   2 Type H   : 5s4p3d1f contracted to 5s4p3d1f pattern {11111/1111/111/1}

Atom   0Be   basis set group =>   1
Atom   1H    basis set group =>   2
Atom   2H    basis set group =>   2
----------------------------------
AUXILIARY/JK BASIS SET INFORMATION
----------------------------------
There are 2 groups of distinct atoms

 Group   1 Type Be  : 10s7p4d2f contracted to 7s5p3d2f pattern {4111111/31111/211/11}
 Group   2 Type H   : 4s2p2d contracted to 2s2p2d pattern {31/11/11}

Atom   0Be   basis set group =>   1
Atom   1H    basis set group =>   2
Atom   2H    basis set group =>   2


           ************************************************************
           *        Program running with 24 parallel MPI-processes    *
           *              working on a common directory               *
           ************************************************************
------------------------------------------------------------------------------
                           ORCA GTO INTEGRAL CALCULATION
                           -- RI-GTO INTEGRALS CHOSEN --
------------------------------------------------------------------------------

                         BASIS SET STATISTICS AND STARTUP INFO

Gaussian basis set:
 # of primitive gaussian shells          ...   35
 # of primitive gaussian functions       ...   69
 # of contracted shells                  ...   24
 # of contracted basis functions         ...   56
 Highest angular momentum                ...    2
 Maximum contraction depth               ...    6
Auxiliary gaussian basis set:
 # of primitive gaussian shells          ...   39
 # of primitive gaussian functions       ...  105
 # of contracted shells                  ...   29
 # of contracted aux-basis functions     ...   87
 Highest angular momentum                ...    3
 Maximum contraction depth               ...    4
Ratio of auxiliary to basis functions    ...  1.55
Integral package used                  ... LIBINT
 One Electron integrals                  ... done
 Ordering auxiliary basis shells         ... done
 Integral threshhold             Thresh  ...  1.000e-10
 Primitive cut-off               TCut    ...  1.000e-11
 Pre-screening matrix                    ... done
 Shell pair data                         ... 
 Ordering of the shell pairs             ... done (   0.000 sec) 300 of 300 pairs
 Determination of significant pairs      ... done (   0.000 sec)
 Creation of shell pair data             ... done (   0.000 sec)
 Storage of shell pair data              ... done (   0.023 sec)
 Shell pair data done in (   0.023 sec)
 Computing two index integrals           ... done
 Cholesky decomposition of the V-matrix  ... done


Timings:
 Total evaluation time                   ...   0.167 sec (  0.003 min)
 One electron matrix time                ...   0.010 sec (  0.000 min) =  5.8%
 Schwartz matrix evaluation time         ...   0.084 sec (  0.001 min) = 50.2%
 Two index repulsion integral time       ...   0.035 sec (  0.001 min) = 21.3%
 Cholesky decomposition of V             ...   0.001 sec (  0.000 min) =  0.5%
 Three index repulsion integral time     ...   0.000 sec (  0.000 min) =  0.0%



           ************************************************************
           *        Program running with 24 parallel MPI-processes    *
           *              working on a common directory               *
           ************************************************************
-------------------------------------------------------------------------------
                                 ORCA SCF
-------------------------------------------------------------------------------

------------
SCF SETTINGS
------------
Hamiltonian:
 Density Functional     Method          .... DFT(GTOs)
 Exchange Functional    Exchange        .... B88
   X-Alpha parameter    XAlpha          ....  0.666667
   Becke's b parameter  XBeta           ....  0.004200
 Correlation Functional Correlation     .... LYP
 LDA part of GGA corr.  LDAOpt          .... VWN-3
 Gradients option       PostSCFGGA      .... off
 Hybrid DFT is turned on
   Fraction HF Exchange ScalHFX         ....  0.530000
   Scaling of DF-GGA-X  ScalDFX         ....  0.470000
   Scaling of DF-GGA-C  ScalDFC         ....  0.730000
   Scaling of DF-LDA-C  ScalLDAC        ....  0.730000
   Perturbative correction              ....  0.270000
   Density functional embedding theory  .... OFF
 RI-approximation to the Coulomb term is turned on
   Number of auxiliary basis functions  .... 87
   RI-JK (J+K treated both via RI)      .... on


General Settings:
 Integral files         IntName         .... 168_be
 Hartree-Fock type      HFTyp           .... RHF
 Total Charge           Charge          ....    0
 Multiplicity           Mult            ....    1
 Number of Electrons    NEL             ....    6
 Basis Dimension        Dim             ....   56
 Nuclear Repulsion      ENuc            ....      3.3466810543 Eh

Convergence Acceleration:
 DIIS                   CNVDIIS         .... on
   Start iteration      DIISMaxIt       ....    12
   Startup error        DIISStart       ....  0.200000
   # of expansion vecs  DIISMaxEq       ....     5
   Bias factor          DIISBfac        ....   1.050
   Max. coefficient     DIISMaxC        ....  10.000
 Newton-Raphson         CNVNR           .... off
 SOSCF                  CNVSOSCF        .... on
   Start iteration      SOSCFMaxIt      ....   150
   Startup grad/error   SOSCFStart      ....  0.003300
 Level Shifting         CNVShift        .... on
   Level shift para.    LevelShift      ....    0.2500
   Turn off err/grad.   ShiftErr        ....    0.0010
 Zerner damping         CNVZerner       .... off
 Static damping         CNVDamp         .... on
   Fraction old density DampFac         ....    0.7000
   Max. Damping (<1)    DampMax         ....    0.9800
   Min. Damping (>=0)   DampMin         ....    0.0000
   Turn off err/grad.   DampErr         ....    0.1000
 Fernandez-Rico         CNVRico         .... off

SCF Procedure:
 Maximum # iterations   MaxIter         ....   125
 SCF integral mode      SCFMode         .... Direct
   Integral package                     .... LIBINT
 Reset frequency        DirectResetFreq ....    20
 Integral Threshold     Thresh          ....  1.000e-10 Eh
 Primitive CutOff       TCut            ....  1.000e-11 Eh

Convergence Tolerance:
 Convergence Check Mode ConvCheckMode   .... Total+1el-Energy
 Convergence forced     ConvForced      .... 0
 Energy Change          TolE            ....  1.000e-06 Eh
 1-El. energy change                    ....  1.000e-03 Eh
 Orbital Gradient       TolG            ....  5.000e-05
 Orbital Rotation angle TolX            ....  5.000e-05
 DIIS Error             TolErr          ....  1.000e-06


Diagonalization of the overlap matrix:
Smallest eigenvalue                        ... 8.616e-04
Time for diagonalization                   ...    0.002 sec
Threshold for overlap eigenvalues          ... 1.000e-08
Number of eigenvalues below threshold      ... 0
Time for construction of square roots      ...    0.001 sec
Total time needed                          ...    0.003 sec

-------------------
DFT GRID GENERATION
-------------------

General Integration Accuracy     IntAcc      ...  4.670
Radial Grid Type                 RadialGrid  ... Gauss-Chebyshev
Angular Grid (max. acc.)         AngularGrid ... Lebedev-302
Angular grid pruning method      GridPruning ... 3 (G Style)
Weight generation scheme         WeightScheme... Becke
Basis function cutoff            BFCut       ...    1.0000e-10
Integration weight cutoff        WCut        ...    1.0000e-14
Grids for H and He will be reduced by one unit

# of grid points (after initial pruning)     ...  12748 (   0.0 sec)
# of grid points (after weights+screening)   ...  12636 (   0.0 sec)
nearest neighbour list constructed           ...    0.0 sec
Grid point re-assignment to atoms done       ...    0.0 sec
Grid point division into batches done        ...    0.1 sec
Reduced shell lists constructed in    0.1 sec

Total number of grid points                  ...    12636
Total number of batches                      ...      200
Average number of points per batch           ...       63
Average number of grid points per atom       ...     4212
Average number of shells per batch           ...    14.00 (58.33%)
Average number of basis functions per batch  ...    31.40 (56.07%)
Average number of large shells per batch     ...    11.70 (83.57%)
Average number of large basis fcns per batch ...    26.30 (83.76%)
Average number of aux-shells per batch       ...    14.00 (48.28%)
Average number of aux functions per batch    ...    31.40 (36.09%)
Maximum spatial batch extension              ...  41.76, 31.89,  2.52 au
Average spatial batch extension              ...   0.78,  0.69,  0.11 au

Time for grid setup =    0.077 sec

------------------------------
INITIAL GUESS: MODEL POTENTIAL
------------------------------
Loading Hartree-Fock densities                     ... done
Calculating cut-offs                               ... done
Setting up the integral package                    ... done
Initializing the effective Hamiltonian             ... done
Starting the Coulomb interaction                   ... done (   0.0 sec)
Reading the grid                                   ... done
Mapping shells                                     ... done
Starting the XC term evaluation                    ... done (   0.0 sec)
  promolecular density results
     # of electrons  =      5.999014028
     EX              =     -3.255260344
     EC              =     -0.024239363
     EX+EC           =     -3.279499708
Transforming the Hamiltonian                       ... done (   0.0 sec)
Diagonalizing the Hamiltonian                      ... done (   0.0 sec)
Back transforming the eigenvectors                 ... done (   0.0 sec)
Now organizing SCF variables                       ... done
                      ------------------
                      INITIAL GUESS DONE (   0.2 sec)
                      ------------------
--------------
SCF ITERATIONS
--------------
ITER       Energy         Delta-E        Max-DP      RMS-DP      [F,P]     Damp
  0    -15.8482017175   0.000000000000 0.02277390  0.00129324  0.1225747 0.7000
  1    -15.8421755157   0.006026201796 0.02399784  0.00132597  0.1138459 0.7000
                               ***Turning on DIIS***
  2    -15.8445654748  -0.002389959048 0.06043294  0.00334436  0.0822281 0.0000
  3    -15.8654029425  -0.020837467694 0.01310593  0.00065272  0.0283658 0.0000
  4    -15.8662614242  -0.000858481710 0.00617994  0.00027132  0.0105370 0.0000
  5    -15.8664075511  -0.000146126919 0.00249086  0.00010284  0.0036626 0.0000
                      *** Initiating the SOSCF procedure ***
                           *** Shutting down DIIS ***
                      *** Re-Reading the Fockian *** 
                      *** Removing any level shift *** 
ITER      Energy       Delta-E        Grad      Rot      Max-DP    RMS-DP
  6    -15.86643071  -0.0000231583  0.000499  0.000499  0.001065  0.000045
  7    -15.86643366  -0.0000029551  0.000175  0.000334  0.000606  0.000027
                 **** Energy Check signals convergence ****
              ***Rediagonalizing the Fockian in SOSCF/NRSCF***

               *****************************************************
               *                     SUCCESS                       *
               *           SCF CONVERGED AFTER   8 CYCLES          *
               *****************************************************


----------------
TOTAL SCF ENERGY
----------------

Total Energy       :          -15.86643404 Eh            -431.74762 eV

Components:
Nuclear Repulsion  :            3.34668105 Eh              91.06782 eV
Electronic Energy  :          -19.21311509 Eh            -522.81544 eV
One Electron Energy:          -27.01473104 Eh            -735.10820 eV
Two Electron Energy:            7.80161595 Eh             212.29276 eV

Virial components:
Potential Energy   :          -31.61579347 Eh            -860.30948 eV
Kinetic Energy     :           15.74935943 Eh             428.56186 eV
Virial Ratio       :            2.00743361


DFT components:
N(Alpha)           :        2.999994848527 electrons
N(Beta)            :        2.999994848527 electrons
N(Total)           :        5.999989697053 electrons
E(X)               :       -1.606567704586 Eh       
E(C)               :       -0.105680342380 Eh       
E(XC)              :       -1.712248046967 Eh       
DFET-embed. en.    :        0.000000000000 Eh       

---------------
SCF CONVERGENCE
---------------

  Last Energy change         ...   -3.7407e-07  Tolerance :   1.0000e-06
  Last MAX-Density change    ...    1.0590e-04  Tolerance :   1.0000e-05
  Last RMS-Density change    ...    6.6361e-06  Tolerance :   1.0000e-06
  Last Orbital Gradient      ...    3.3758e-05  Tolerance :   5.0000e-05
  Last Orbital Rotation      ...    4.1741e-05  Tolerance :   5.0000e-05

             **** THE GBW FILE WAS UPDATED (168_be.gbw) ****
             **** DENSITY FILE WAS UPDATED (168_be.scfp) ****
             **** ENERGY FILE WAS UPDATED (168_be.en.tmp) ****
             **** THE GBW FILE WAS UPDATED (168_be.gbw) ****
             **** DENSITY FILE WAS UPDATED (168_be.scfp) ****
----------------
ORBITAL ENERGIES
----------------

  NO   OCC          E(Eh)            E(eV) 
   0   2.0000      -4.308593      -117.2428 
   1   2.0000      -0.408966       -11.1285 
   2   2.0000      -0.370512       -10.0821 
   3   0.0000      -0.000747        -0.0203 
   4   0.0000      -0.000747        -0.0203 
   5   0.0000       0.041661         1.1337 
   6   0.0000       0.047769         1.2999 
   7   0.0000       0.084725         2.3055 
   8   0.0000       0.084725         2.3055 
   9   0.0000       0.115290         3.1372 
  10   0.0000       0.185118         5.0373 
  11   0.0000       0.185118         5.0373 
  12   0.0000       0.213353         5.8056 
  13   0.0000       0.243933         6.6378 
  14   0.0000       0.278455         7.5771 
  15   0.0000       0.294541         8.0149 
  16   0.0000       0.294541         8.0149 
  17   0.0000       0.368640        10.0312 
  18   0.0000       0.368640        10.0312 
  19   0.0000       0.420396        11.4396 
  20   0.0000       0.429248        11.6804 
  21   0.0000       0.429248        11.6804 
  22   0.0000       0.580064        15.7843 
  23   0.0000       0.580064        15.7843 
  24   0.0000       0.590815        16.0769 
  25   0.0000       0.609379        16.5820 
  26   0.0000       0.717419        19.5220 
  27   0.0000       0.966689        26.3049 
  28   0.0000       1.043357        28.3912 
  29   0.0000       1.043357        28.3912 
  30   0.0000       1.173062        31.9206 
  31   0.0000       1.173062        31.9206 
  32   0.0000       1.347777        36.6749 
  33   0.0000       1.613122        43.8953 
  34   0.0000       2.986976        81.2798 
  35   0.0000       3.011592        81.9496 
  36   0.0000       3.319370        90.3246 
  37   0.0000       3.319379        90.3249 
  38   0.0000       3.388625        92.2092 
  39   0.0000       3.388634        92.2094 
  40   0.0000       3.396327        92.4188 
  41   0.0000       3.435063        93.4728 
  42   0.0000       3.435063        93.4728 
  43   0.0000       3.472781        94.4992 
  44   0.0000       3.472781        94.4992 
  45   0.0000       3.760122       102.3181 
  46   0.0000       4.049396       110.1897 
  47   0.0000       4.049396       110.1897 
  48   0.0000       4.132948       112.4632 
  49   0.0000       4.132948       112.4632 
  50   0.0000       4.338036       118.0440 
  51   0.0000       4.747635       129.1897 
  52   0.0000       5.497745       149.6012 
  53   0.0000       5.497745       149.6012 
  54   0.0000       6.640906       180.7082 
  55   0.0000       8.144625       221.6265 

                    ********************************
                    * MULLIKEN POPULATION ANALYSIS *
                    ********************************

-----------------------
MULLIKEN ATOMIC CHARGES
-----------------------
   0 Be:    0.145788
   1 H :   -0.072894
   2 H :   -0.072894
Sum of atomic charges:   -0.0000000

--------------------------------
MULLIKEN REDUCED ORBITAL CHARGES
--------------------------------
  0 Bes       :     2.826546  s :     2.826546
      pz      :     1.009744  p :     1.009744
      px      :     0.000000
      py      :     0.000000
      dz2     :     0.017922  d :     0.017922
      dxz     :     0.000000
      dyz     :     0.000000
      dx2y2   :     0.000000
      dxy     :     0.000000
  1 H s       :     1.048396  s :     1.048396
      pz      :     0.024029  p :     0.024029
      px      :     0.000000
      py      :    -0.000000
      dz2     :     0.000469  d :     0.000469
      dxz     :    -0.000000
      dyz     :    -0.000000
      dx2y2   :     0.000000
      dxy     :    -0.000000
  2 H s       :     1.048396  s :     1.048396
      pz      :     0.024029  p :     0.024029
      px      :     0.000000
      py      :     0.000000
      dz2     :     0.000469  d :     0.000469
      dxz     :    -0.000000
      dyz     :    -0.000000
      dx2y2   :     0.000000
      dxy     :    -0.000000


                     *******************************
                     * LOEWDIN POPULATION ANALYSIS *
                     *******************************

----------------------
LOEWDIN ATOMIC CHARGES
----------------------
   0 Be:    0.363075
   1 H :   -0.181537
   2 H :   -0.181537

-------------------------------
LOEWDIN REDUCED ORBITAL CHARGES
-------------------------------
  0 Bes       :     2.723321  s :     2.723321
      pz      :     0.840903  p :     0.840903
      px      :     0.000000
      py      :     0.000000
      dz2     :     0.072701  d :     0.072701
      dxz     :     0.000000
      dyz     :     0.000000
      dx2y2   :     0.000000
      dxy     :     0.000000
  1 H s       :     1.092677  s :     1.092677
      pz      :     0.086437  p :     0.086437
      px      :     0.000000
      py      :     0.000000
      dz2     :     0.002423  d :     0.002423
      dxz     :     0.000000
      dyz     :     0.000000
      dx2y2   :     0.000000
      dxy     :     0.000000
  2 H s       :     1.092677  s :     1.092677
      pz      :     0.086437  p :     0.086437
      px      :     0.000000
      py      :     0.000000
      dz2     :     0.002423  d :     0.002423
      dxz     :     0.000000
      dyz     :     0.000000
      dx2y2   :     0.000000
      dxy     :     0.000000


                      *****************************
                      * MAYER POPULATION ANALYSIS *
                      *****************************

  NA   - Mulliken gross atomic population
  ZA   - Total nuclear charge
  QA   - Mulliken gross atomic charge
  VA   - Mayer's total valence
  BVA  - Mayer's bonded valence
  FA   - Mayer's free valence

  ATOM       NA         ZA         QA         VA         BVA        FA
  0 Be     3.8542     4.0000     0.1458     1.9505     1.9505    -0.0000
  1 H      1.0729     1.0000    -0.0729     1.0848     1.0848    -0.0000
  2 H      1.0729     1.0000    -0.0729     1.0848     1.0848    -0.0000

  Mayer bond orders larger than 0.100000
B(  0-Be,  1-H ) :   0.9753 B(  0-Be,  2-H ) :   0.9753 B(  1-H ,  2-H ) :   0.1095 


-------
TIMINGS
-------

Total SCF time: 0 days 0 hours 0 min 0 sec 

Total time                  ....       0.953 sec
Sum of individual times     ....       0.872 sec  ( 91.5%)

Fock matrix formation       ....       0.679 sec  ( 71.3%)
  XC integration            ....       0.076 sec  ( 11.2% of F)
    Basis function eval.    ....       0.008 sec  ( 10.4% of XC)
    Density eval.           ....       0.004 sec  (  5.0% of XC)
    XC-Functional eval.     ....       0.004 sec  (  5.0% of XC)
    XC-Potential eval.      ....       0.005 sec  (  6.0% of XC)
Diagonalization             ....       0.004 sec  (  0.4%)
Density matrix formation    ....       0.002 sec  (  0.2%)
Population analysis         ....       0.003 sec  (  0.3%)
Initial guess               ....       0.104 sec  ( 10.9%)
Orbital Transformation      ....       0.000 sec  (  0.0%)
Orbital Orthonormalization  ....       0.000 sec  (  0.0%)
DIIS solution               ....       0.003 sec  (  0.3%)
SOSCF solution              ....       0.001 sec  (  0.1%)
Grid generation             ....       0.077 sec  (  8.1%)


           ************************************************************
           *        Program running with 24 parallel MPI-processes    *
           *              working on a common directory               *
           ************************************************************

------------------------------------------------------------------------------
                                ORCA  MP2 
------------------------------------------------------------------------------

Freezing NCore=0 chemical core electrons

-------------
RI-MP2 ENERGY
-------------
Dimension of the basis                    ...   56
Memory devoted to MP2                     ... 5000 MB   
Data format for buffers                   ... DOUBLE
Compression type for matrix containers    ... UNCOMPRESSED
Overall scaling of the MP2 energy         ...   2.700e-01
Calculating two index integrals           ... done (    0.001 sec)
Cholesky decomposition of V**-1           ... done (    0.002 sec)

-----------------
RI-TRANSFORMATION (AUX index driven)
-----------------

Dimension of the orbital-basis         ... 56
Dimension of the aux-basis             ... 136
Transformation of internal/external MOs...    0-   2 to    3-  55
Number Format for Storage              ... Double (8 Byte)
Integral mode                          ... Direct

First Phase: integral generation and transformation of MO indices
  Aux angular momentum 0               ... done (    0.000 sec)
  Aux angular momentum 1               ... done (    0.000 sec)
  Aux angular momentum 2               ... done (    0.000 sec)
  Aux angular momentum 3               ... done (    0.000 sec)
Closing buffer VIA ( 0.00 GB; CompressionRatio= 0.99)
  Phase 1 completed in     0.077 sec
Second Phase: sorting and transformation of aux index

IA-Transformation
Memory available                       ... 5000 MB 
Max. # MO pairs treated in a batch     ... 1    
# of internal orbitals                 ... 3
# batches for internal orbitals        ... 1
Closing buffer IAV ( 0.00 GB; CompressionRatio= 1.00)
(ia|v) transformation done in     0.001 sec

  Phase 2 completed in     0.003 sec
RI-Integral transformation completed in     0.082 sec
Opening buffers                              ... done

Starting loop over batches of integrals:

Operator 0  - window                       ... (  0-  2)x(  3- 55)
Operator 0  - Memory available             ...  5000 MB
Operator 0  - Memory needed per MO         ...   0.1 MB
Operator 0  - Number of orbitals per batch ... 1
Operator 0  - Number of batches            ... 1

OPERATOR  0   PASS   0:  MOs     0 ...    0 +    1 ...    1 +    2 ...    2
  Reading integrals       ... ok
Time spent in pair loops =     0.001 sec

-----------------------------------------------
 RI-MP2 CORRELATION ENERGY:     -0.027540480 Eh
-----------------------------------------------


-------
TIMINGS
-------

Total time                :    0.101 sec
Integral trafo            :    0.096 sec ( 94.9%)
I/O of integrals          :    0.000 sec (  0.0%)
K(i,j) Operators          :    0.000 sec (  0.1%)
T(i,j) pair energies      :    0.000 sec (  0.0%)
V-calculation             :    0.001 sec (  0.8%)
V**(-1/2)                 :    0.002 sec (  2.4%)
Gamma(ia|P)               :    0.000 sec (  0.0%)
Gamma-Trafo               :    0.000 sec (  0.0%)
D(virtual)                :    0.000 sec (  0.0%)
D(internal)               :    0.000 sec (  0.0%)
W(virtual)                :    0.000 sec (  0.0%)
W(internal)               :    0.000 sec (  0.0%)
L(virtual)                :    0.000 sec (  0.0%)
L(internal)               :    0.000 sec (  0.0%)
G(D)                      :    0.000 sec (  0.0%)
G(Z)                      :    0.000 sec (  0.0%)
Z-Vector Solution         :    0.000 sec (  0.0%)
Z-Vector Solution         :    0.000 sec (  0.0%)
3-Index Derivative 
+ Separable RIJ part      :    0.000 sec (  0.0%)
2-Index Derivative 
+ Separable RIJ part      :    0.000 sec (  0.0%)
Separable Gradient (X)    :    0.000 sec (  0.0%)


---------------------------------------
MP2 TOTAL ENERGY:      -15.893974518 Eh
---------------------------------------


-------------------------------------------------------------------------------
                          DFT DISPERSION CORRECTION                            
                                                                               
                              DFTD3 V3.1  Rev 1                                
                          USING Becke-Johnson damping                          
-------------------------------------------------------------------------------
The B2PLYP functional is recognized
Active option DFTDOPT                   ...         4   

molecular C6(AA) [au] = 120.263449 


            DFT-D V3
 parameters
 s6 scaling factor         :     0.6400 
 a1 scaling factor         :     0.3065 
 s8 scaling factor         :     0.9147 
 a2 scaling factor         :     5.0570 
 ad hoc parameters k1-k3   :    16.0000     1.3333    -4.0000 

 Edisp/kcal,au: -0.262547302370  -0.000418395714 
 E6   /kcal   :  -0.150362306 
 E8   /kcal   :  -0.112184997 
 % E8         :  42.729441770 

-------------------------   ----------------
Dispersion correction           -0.000418396
-------------------------   ----------------


-------------------------   --------------------
FINAL SINGLE POINT ENERGY       -15.894392914136
-------------------------   --------------------


                            ***************************************
                            *     ORCA property calculations      *
                            ***************************************


  WARNING: The energy has been calculated at the MP2 level but the densities
           used in the property calculations are still SCF densities
           MP2 response densities have not been calculated 
           use %mp2 Density relaxed end
           or  %mp2 Density unrelaxed end

                                    ---------------------
                                    Active property flags
                                    ---------------------
   (+) Dipole Moment


------------------------------------------------------------------------------
                       ORCA ELECTRIC PROPERTIES CALCULATION
------------------------------------------------------------------------------

Dipole Moment Calculation                       ... on
Quadrupole Moment Calculation                   ... off
Polarizability Calculation                      ... off
GBWName                                         ... 168_be.gbw
Electron density file                           ... 168_be.scfp
The origin for moment calculation is the CENTER OF MASS  = ( 0.000000,  0.000000  0.000000)

-------------
DIPOLE MOMENT
-------------
                                X             Y             Z
Electronic contribution:      0.00000       0.00000      -0.00000
Nuclear contribution   :      0.00000       0.00000       0.00000
                        -----------------------------------------
Total Dipole Moment    :      0.00000       0.00000      -0.00000
                        -----------------------------------------
Magnitude (a.u.)       :      0.00000
Magnitude (Debye)      :      0.00000



--------------------
Rotational spectrum 
--------------------
 
Rotational constants in cm-1:     0.000000     4.629082     4.629082 
Rotational constants in MHz :     0.000000 138776.398767 138776.398767 

 Dipole components along the rotational axes: 
x,y,z [a.u.] :    -0.000000     0.000000     0.000000 
x,y,z [Debye]:    -0.000000     0.000000     0.000000 

 

Timings for individual modules:

Sum of individual times         ...        2.382 sec (=   0.040 min)
GTO integral calculation        ...        0.517 sec (=   0.009 min)  21.7 %
SCF iterations                  ...        1.292 sec (=   0.022 min)  54.2 %
MP2 module                      ...        0.573 sec (=   0.010 min)  24.1 %
                             ****ORCA TERMINATED NORMALLY****
TOTAL RUN TIME: 0 days 0 hours 0 minutes 2 seconds 848 msec
