
                                 *****************
                                 * O   R   C   A *
                                 *****************

           --- An Ab Initio, DFT and Semiempirical electronic structure package ---

                  #######################################################
                  #                        -***-                        #
                  #          Department of theory and spectroscopy      #
                  #               Directorship: Frank Neese             #
                  #        Max Planck Institute fuer Kohlenforschung    #
                  #                Kaiser Wilhelm Platz 1               #
                  #                 D-45470 Muelheim/Ruhr               #
                  #                      Germany                        #
                  #                                                     #
                  #                  All rights reserved                #
                  #                        -***-                        #
                  #######################################################


                         Program Version 4.2.0 -  RELEASE  -


 With contributions from (in alphabetic order):
   Daniel Aravena         : Magnetic Suceptibility
   Michael Atanasov       : Ab Initio Ligand Field Theory (pilot matlab implementation)
   Alexander A. Auer      : GIAO ZORA, VPT2
   Ute Becker             : Parallelization
   Giovanni Bistoni       : ED, misc. LED, open-shell LED, HFLED
   Martin Brehm           : Molecular dynamics
   Dmytro Bykov           : SCF Hessian
   Vijay G. Chilkuri      : MRCI spin determinant printing, contributions to CSF-ICE
   Dipayan Datta          : RHF DLPNO-CCSD density
   Achintya Kumar Dutta   : EOM-CC, STEOM-CC
   Dmitry Ganyushin       : Spin-Orbit,Spin-Spin,Magnetic field MRCI
   Miquel Garcia          : C-PCM Hessian, Gaussian charge scheme
   Yang Guo               : DLPNO-NEVPT2, CIM, IAO-localization
   Andreas Hansen         : Spin unrestricted coupled pair/coupled cluster methods
   Benjamin Helmich-Paris : CASSCF linear response (MC-RPA)
   Lee Huntington         : MR-EOM, pCC
   Robert Izsak           : Overlap fitted RIJCOSX, COSX-SCS-MP3, EOM
   Christian Kollmar      : KDIIS, OOCD, Brueckner-CCSD(T), CCSD density
   Simone Kossmann        : Meta GGA functionals, TD-DFT gradient, OOMP2, MP2 Hessian
   Martin Krupicka        : AUTO-CI
   Lucas Lang             : DCDCAS
   Dagmar Lenk            : GEPOL surface, SMD
   Dimitrios Liakos       : Extrapolation schemes; Compound Job, initial MDCI parallelization
   Dimitrios Manganas     : Further ROCIS development; embedding schemes
   Dimitrios Pantazis     : SARC Basis sets
   Taras Petrenko         : DFT Hessian,TD-DFT gradient, ASA, ECA, R-Raman, ABS, FL, XAS/XES, NRVS
   Peter Pinski           : DLPNO-MP2, DLPNO-MP2 Gradient
   Christoph Reimann      : Effective Core Potentials
   Marius Retegan         : Local ZFS, SOC
   Christoph Riplinger    : Optimizer, TS searches, QM/MM, DLPNO-CCSD(T), (RO)-DLPNO pert. Triples
   Tobias Risthaus        : Range-separated hybrids, TD-DFT gradient, RPA, STAB
   Michael Roemelt        : Original ROCIS implementation
   Masaaki Saitow         : Open-shell DLPNO-CCSD energy and density
   Barbara Sandhoefer     : DKH picture change effects
   Avijit Sen             : IP-ROCIS
   Kantharuban Sivalingam : CASSCF convergence, NEVPT2, FIC-MRCI
   Bernardo de Souza      : ESD, SOC TD-DFT
   Georgi Stoychev        : AutoAux, RI-MP2 NMR
   Willem Van den Heuvel  : Paramagnetic NMR
   Boris Wezisla          : Elementary symmetry handling
   Frank Wennmohs         : Technical directorship


 We gratefully acknowledge several colleagues who have allowed us to
 interface, adapt or use parts of their codes:
   Stefan Grimme, W. Hujo, H. Kruse,             : VdW corrections, initial TS optimization,
                  C. Bannwarth                     DFT functionals, gCP, sTDA/sTD-DF
   Ed Valeev, F. Pavosevic, A. Kumar             : LibInt (2-el integral package), F12 methods
   Garnet Chan, S. Sharma, J. Yang, R. Olivares  : DMRG
   Ulf Ekstrom                                   : XCFun DFT Library
   Mihaly Kallay                                 : mrcc  (arbitrary order and MRCC methods)
   Andreas Klamt, Michael Diedenhofen            : otool_cosmo (COSMO solvation model)
   Jiri Pittner, Ondrej Demel                    : Mk-CCSD
   Frank Weinhold                                : gennbo (NPA and NBO analysis)
   Christopher J. Cramer and Donald G. Truhlar   : smd solvation model
   Lars Goerigk                                  : TD-DFT with DH, B97 family of functionals
   V. Asgeirsson, H. Jonsson                     : NEB implementation
   FAccTs GmbH                                   : IRC, NEB, NEB-TS, Multilevel, MM, QM/MM, CI optimization
   S Lehtola, MJT Oliveira, MAL Marques          : LibXC Library


 Your calculation uses the libint2 library for the computation of 2-el integrals
 For citations please refer to: http://libint.valeyev.net

 Your ORCA version has been built with support for libXC version: 4.2.3
 For citations please refer to: https://tddft.org/programs/libxc/

 This ORCA versions uses:
   CBLAS   interface :  Fast vector & matrix operations
   LAPACKE interface :  Fast linear algebra routines
   SCALAPACK package :  Parallel linear algebra routines


Your calculation utilizes the atom-pairwise dispersion correction
with the Becke-Johnson damping scheme (D3BJ)
Cite in your paper:
S.Grimme, S.Ehrlich, L.Goerigk, J Comput Chem, (2011), 32, 1456–1465 
S.Grimme, J.Antony, S.Ehrlich and H.Krieg, J.Chem.Phys., 132, (2010), 154104 
   

----- Orbital basis set information -----
Your calculation utilizes the basis: def2-TZVPPD
   F. Weigend and R. Ahlrichs, Phys. Chem. Chem. Phys. 7, 3297 (2005).
   D. Rappoport and F. Furche, J. Chem. Phys. 133 134105 (2010).

----- AuxC basis set information -----
Your calculation utilizes the auxiliary basis: def2-TZVPPD/C
   A. Hellweg, C. Hattig, S. Hofener and W. Klopper, Theor. Chem. Acc. 117, 587 (2007).

----- AuxJK basis set information -----
Your calculation utilizes the auxiliary basis: def2/JK
   H-Ba, Hf-Rn: F. Weigend, J. Comput. Chem. 29, 167 (2008).

================================================================================
                                        WARNINGS
                       Please study these warnings very carefully!
================================================================================


WARNING: No MP2 level density has been requested!
         To caclulate MP2 level properties use
         %mp2 Density relaxed end
         or
         %mp2 Density unrelaxed end
         Otherwise for double-hybrid DFT only the energy is correct!

WARNING: The frozen-core approximation is turned on by default for 
         the MP2 part of double-hybrid DFT.

INFO   : the flag for use of LIBINT has been found!

================================================================================
                                       INPUT FILE
================================================================================
NAME = 169_b.in
|  1> #
|  2> # 169_b ri-B2PLYP-D3BJ/Def2-TZVPPD
|  3> #
|  4> ! rijk ri-b2plyp d3bj def2-tzvppd def2/jk def2-tzvppd/c grid4 nofinalgrid
|  5> 
|  6> *xyz 0 1
|  7> B          0.00000        0.00000        0.00000
|  8> H          0.60006        1.03933        0.00000
|  9> H          0.60006       -1.03933        0.00000
| 10> H         -1.20012        0.00000        0.00000
| 11> *
| 12> 
| 13> %maxcore 5000
| 14> 
| 15> %pal
| 16> nprocs = 24
| 17> end
| 18> 
| 19> 
| 20>                          ****END OF INPUT****
================================================================================

                       ****************************
                       * Single Point Calculation *
                       ****************************

---------------------------------
CARTESIAN COORDINATES (ANGSTROEM)
---------------------------------
  B      0.000000    0.000000    0.000000
  H      0.600060    1.039330    0.000000
  H      0.600060   -1.039330    0.000000
  H     -1.200120    0.000000    0.000000

----------------------------
CARTESIAN COORDINATES (A.U.)
----------------------------
  NO LB      ZA    FRAG     MASS         X           Y           Z
   0 B     5.0000    0    10.810    0.000000    0.000000    0.000000
   1 H     1.0000    0     1.008    1.133949    1.964049    0.000000
   2 H     1.0000    0     1.008    1.133949   -1.964049    0.000000
   3 H     1.0000    0     1.008   -2.267898    0.000000    0.000000

--------------------------------
INTERNAL COORDINATES (ANGSTROEM)
--------------------------------
 B      0   0   0     0.000000000000     0.00000000     0.00000000
 H      1   0   0     1.200116182917     0.00000000     0.00000000
 H      1   2   0     1.200116182917   119.99978957     0.00000000
 H      1   2   3     1.200120000000   120.00010521   180.00000000

---------------------------
INTERNAL COORDINATES (A.U.)
---------------------------
 B      0   0   0     0.000000000000     0.00000000     0.00000000
 H      1   0   0     2.267890914601     0.00000000     0.00000000
 H      1   2   0     2.267890914601   119.99978957     0.00000000
 H      1   2   3     2.267898127842   120.00010521   180.00000000

---------------------
BASIS SET INFORMATION
---------------------
There are 2 groups of distinct atoms

 Group   1 Type B   : 12s6p3d1f contracted to 6s3p3d1f pattern {621111/411/111/1}
 Group   2 Type H   : 5s3p1d contracted to 3s3p1d pattern {311/111/1}

Atom   0B    basis set group =>   1
Atom   1H    basis set group =>   2
Atom   2H    basis set group =>   2
Atom   3H    basis set group =>   2
---------------------------------
AUXILIARY/C BASIS SET INFORMATION
---------------------------------
There are 2 groups of distinct atoms

 Group   1 Type B   : 9s7p6d4f1g contracted to 9s7p5d4f1g pattern {111111111/1111111/21111/1111/1}
 Group   2 Type H   : 5s4p3d1f contracted to 5s4p3d1f pattern {11111/1111/111/1}

Atom   0B    basis set group =>   1
Atom   1H    basis set group =>   2
Atom   2H    basis set group =>   2
Atom   3H    basis set group =>   2
----------------------------------
AUXILIARY/JK BASIS SET INFORMATION
----------------------------------
There are 2 groups of distinct atoms

 Group   1 Type B   : 14s10p6d2f1g contracted to 10s8p5d1f1g pattern {5111111111/31111111/21111/2/1}
 Group   2 Type H   : 4s2p2d contracted to 2s2p2d pattern {31/11/11}

Atom   0B    basis set group =>   1
Atom   1H    basis set group =>   2
Atom   2H    basis set group =>   2
Atom   3H    basis set group =>   2


           ************************************************************
           *        Program running with 24 parallel MPI-processes    *
           *              working on a common directory               *
           ************************************************************
------------------------------------------------------------------------------
                           ORCA GTO INTEGRAL CALCULATION
                           -- RI-GTO INTEGRALS CHOSEN --
------------------------------------------------------------------------------

                         BASIS SET STATISTICS AND STARTUP INFO

Gaussian basis set:
 # of primitive gaussian shells          ...   49
 # of primitive gaussian functions       ...  109
 # of contracted shells                  ...   34
 # of contracted basis functions         ...   88
 Highest angular momentum                ...    3
 Maximum contraction depth               ...    6
Auxiliary gaussian basis set:
 # of primitive gaussian shells          ...   57
 # of primitive gaussian functions       ...  157
 # of contracted shells                  ...   43
 # of contracted aux-basis functions     ...  129
 Highest angular momentum                ...    4
 Maximum contraction depth               ...    5
Ratio of auxiliary to basis functions    ...  1.47
Integral package used                  ... LIBINT
 One Electron integrals                  ... done
 Ordering auxiliary basis shells         ... done
 Integral threshhold             Thresh  ...  1.000e-10
 Primitive cut-off               TCut    ...  1.000e-11
 Pre-screening matrix                    ... done
 Shell pair data                         ... 
 Ordering of the shell pairs             ... done (   0.000 sec) 595 of 595 pairs
 Determination of significant pairs      ... done (   0.000 sec)
 Creation of shell pair data             ... done (   0.000 sec)
 Storage of shell pair data              ... done (   0.025 sec)
 Shell pair data done in (   0.026 sec)
 Computing two index integrals           ... done
 Cholesky decomposition of the V-matrix  ... done


Timings:
 Total evaluation time                   ...   0.204 sec (  0.003 min)
 One electron matrix time                ...   0.024 sec (  0.000 min) = 11.7%
 Schwartz matrix evaluation time         ...   0.120 sec (  0.002 min) = 58.6%
 Two index repulsion integral time       ...   0.001 sec (  0.000 min) =  0.3%
 Cholesky decomposition of V             ...   0.001 sec (  0.000 min) =  0.5%
 Three index repulsion integral time     ...   0.000 sec (  0.000 min) =  0.0%



           ************************************************************
           *        Program running with 24 parallel MPI-processes    *
           *              working on a common directory               *
           ************************************************************
-------------------------------------------------------------------------------
                                 ORCA SCF
-------------------------------------------------------------------------------

------------
SCF SETTINGS
------------
Hamiltonian:
 Density Functional     Method          .... DFT(GTOs)
 Exchange Functional    Exchange        .... B88
   X-Alpha parameter    XAlpha          ....  0.666667
   Becke's b parameter  XBeta           ....  0.004200
 Correlation Functional Correlation     .... LYP
 LDA part of GGA corr.  LDAOpt          .... VWN-3
 Gradients option       PostSCFGGA      .... off
 Hybrid DFT is turned on
   Fraction HF Exchange ScalHFX         ....  0.530000
   Scaling of DF-GGA-X  ScalDFX         ....  0.470000
   Scaling of DF-GGA-C  ScalDFC         ....  0.730000
   Scaling of DF-LDA-C  ScalLDAC        ....  0.730000
   Perturbative correction              ....  0.270000
   Density functional embedding theory  .... OFF
 RI-approximation to the Coulomb term is turned on
   Number of auxiliary basis functions  .... 129
   RI-JK (J+K treated both via RI)      .... on


General Settings:
 Integral files         IntName         .... 169_b
 Hartree-Fock type      HFTyp           .... RHF
 Total Charge           Charge          ....    0
 Multiplicity           Mult            ....    1
 Number of Electrons    NEL             ....    8
 Basis Dimension        Dim             ....   88
 Nuclear Repulsion      ENuc            ....      7.3777944788 Eh

Convergence Acceleration:
 DIIS                   CNVDIIS         .... on
   Start iteration      DIISMaxIt       ....    12
   Startup error        DIISStart       ....  0.200000
   # of expansion vecs  DIISMaxEq       ....     5
   Bias factor          DIISBfac        ....   1.050
   Max. coefficient     DIISMaxC        ....  10.000
 Newton-Raphson         CNVNR           .... off
 SOSCF                  CNVSOSCF        .... on
   Start iteration      SOSCFMaxIt      ....   150
   Startup grad/error   SOSCFStart      ....  0.003300
 Level Shifting         CNVShift        .... on
   Level shift para.    LevelShift      ....    0.2500
   Turn off err/grad.   ShiftErr        ....    0.0010
 Zerner damping         CNVZerner       .... off
 Static damping         CNVDamp         .... on
   Fraction old density DampFac         ....    0.7000
   Max. Damping (<1)    DampMax         ....    0.9800
   Min. Damping (>=0)   DampMin         ....    0.0000
   Turn off err/grad.   DampErr         ....    0.1000
 Fernandez-Rico         CNVRico         .... off

SCF Procedure:
 Maximum # iterations   MaxIter         ....   125
 SCF integral mode      SCFMode         .... Direct
   Integral package                     .... LIBINT
 Reset frequency        DirectResetFreq ....    20
 Integral Threshold     Thresh          ....  1.000e-10 Eh
 Primitive CutOff       TCut            ....  1.000e-11 Eh

Convergence Tolerance:
 Convergence Check Mode ConvCheckMode   .... Total+1el-Energy
 Convergence forced     ConvForced      .... 0
 Energy Change          TolE            ....  1.000e-06 Eh
 1-El. energy change                    ....  1.000e-03 Eh
 Orbital Gradient       TolG            ....  5.000e-05
 Orbital Rotation angle TolX            ....  5.000e-05
 DIIS Error             TolErr          ....  1.000e-06


Diagonalization of the overlap matrix:
Smallest eigenvalue                        ... 3.326e-04
Time for diagonalization                   ...    0.003 sec
Threshold for overlap eigenvalues          ... 1.000e-08
Number of eigenvalues below threshold      ... 0
Time for construction of square roots      ...    0.001 sec
Total time needed                          ...    0.004 sec

-------------------
DFT GRID GENERATION
-------------------

General Integration Accuracy     IntAcc      ...  4.670
Radial Grid Type                 RadialGrid  ... Gauss-Chebyshev
Angular Grid (max. acc.)         AngularGrid ... Lebedev-302
Angular grid pruning method      GridPruning ... 3 (G Style)
Weight generation scheme         WeightScheme... Becke
Basis function cutoff            BFCut       ...    1.0000e-10
Integration weight cutoff        WCut        ...    1.0000e-14
Grids for H and He will be reduced by one unit

# of grid points (after initial pruning)     ...  16310 (   0.0 sec)
# of grid points (after weights+screening)   ...  16075 (   0.0 sec)
nearest neighbour list constructed           ...    0.0 sec
Grid point re-assignment to atoms done       ...    0.0 sec
Grid point division into batches done        ...    0.1 sec
Reduced shell lists constructed in    0.1 sec

Total number of grid points                  ...    16075
Total number of batches                      ...      253
Average number of points per batch           ...       63
Average number of grid points per atom       ...     4019
Average number of shells per batch           ...    29.50 (86.76%)
Average number of basis functions per batch  ...    78.00 (88.64%)
Average number of large shells per batch     ...    28.67 (97.18%)
Average number of large basis fcns per batch ...    75.17 (96.37%)
Average number of aux-shells per batch       ...    29.50 (68.60%)
Average number of aux functions per batch    ...    78.00 (60.47%)
Maximum spatial batch extension              ...   3.31,  3.03, 23.21 au
Average spatial batch extension              ...   0.09,  0.10,  0.26 au

Time for grid setup =    0.117 sec

------------------------------
INITIAL GUESS: MODEL POTENTIAL
------------------------------
Loading Hartree-Fock densities                     ... done
Calculating cut-offs                               ... done
Setting up the integral package                    ... done
Initializing the effective Hamiltonian             ... done
Starting the Coulomb interaction                   ... done (   0.0 sec)
Reading the grid                                   ... done
Mapping shells                                     ... done
Starting the XC term evaluation                    ... done (   0.0 sec)
  promolecular density results
     # of electrons  =      7.998534963
     EX              =     -4.633976726
     EC              =     -0.050295746
     EX+EC           =     -4.684272472
Transforming the Hamiltonian                       ... done (   0.0 sec)
Diagonalizing the Hamiltonian                      ... done (   0.0 sec)
Back transforming the eigenvectors                 ... done (   0.0 sec)
Now organizing SCF variables                       ... done
                      ------------------
                      INITIAL GUESS DONE (   0.2 sec)
                      ------------------
--------------
SCF ITERATIONS
--------------
ITER       Energy         Delta-E        Max-DP      RMS-DP      [F,P]     Damp
  0    -26.5189792851   0.000000000000 0.03222470  0.00072467  0.0922932 0.7000
  1    -26.5089016243   0.010077660759 0.02864556  0.00070804  0.0827997 0.7000
                               ***Turning on DIIS***
  2    -26.5134575179  -0.004555893539 0.06121395  0.00166264  0.0544462 0.0000
  3    -26.5407638034  -0.027306285560 0.02228707  0.00050929  0.0369396 0.0000
  4    -26.5434971329  -0.002733329455 0.00478732  0.00018563  0.0129454 0.0000
  5    -26.5438410848  -0.000343951921 0.00152310  0.00006843  0.0046644 0.0000
                      *** Initiating the SOSCF procedure ***
                           *** Shutting down DIIS ***
                      *** Re-Reading the Fockian *** 
                      *** Removing any level shift *** 
ITER      Energy       Delta-E        Grad      Rot      Max-DP    RMS-DP
  6    -26.54388680  -0.0000457151  0.000467  0.000467  0.000673  0.000021
  7    -26.54389191  -0.0000051100  0.000202  0.000389  0.000331  0.000016
                 **** Energy Check signals convergence ****
              ***Rediagonalizing the Fockian in SOSCF/NRSCF***

               *****************************************************
               *                     SUCCESS                       *
               *           SCF CONVERGED AFTER   8 CYCLES          *
               *****************************************************


----------------
TOTAL SCF ENERGY
----------------

Total Energy       :          -26.54389247 Eh            -722.29603 eV

Components:
Nuclear Repulsion  :            7.37779448 Eh             200.75999 eV
Electronic Energy  :          -33.92168695 Eh            -923.05603 eV
One Electron Energy:          -48.98242758 Eh           -1332.87962 eV
Two Electron Energy:           15.06074063 Eh             409.82359 eV

Virial components:
Potential Energy   :          -52.92912015 Eh           -1440.27458 eV
Kinetic Energy     :           26.38522768 Eh             717.97855 eV
Virial Ratio       :            2.00601339


DFT components:
N(Alpha)           :        4.000006153454 electrons
N(Beta)            :        4.000006153454 electrons
N(Total)           :        8.000012306908 electrons
E(X)               :       -2.300056844081 Eh       
E(C)               :       -0.155989619165 Eh       
E(XC)              :       -2.456046463246 Eh       
DFET-embed. en.    :        0.000000000000 Eh       

---------------
SCF CONVERGENCE
---------------

  Last Energy change         ...   -5.5814e-07  Tolerance :   1.0000e-06
  Last MAX-Density change    ...    1.9746e-04  Tolerance :   1.0000e-05
  Last RMS-Density change    ...    5.5143e-06  Tolerance :   1.0000e-06
  Last Orbital Gradient      ...    7.7674e-05  Tolerance :   5.0000e-05
  Last Orbital Rotation      ...    6.0609e-05  Tolerance :   5.0000e-05

             **** THE GBW FILE WAS UPDATED (169_b.gbw) ****
             **** DENSITY FILE WAS UPDATED (169_b.scfp) ****
             **** ENERGY FILE WAS UPDATED (169_b.en.tmp) ****
             **** THE GBW FILE WAS UPDATED (169_b.gbw) ****
             **** DENSITY FILE WAS UPDATED (169_b.scfp) ****
----------------
ORBITAL ENERGIES
----------------

  NO   OCC          E(Eh)            E(eV) 
   0   2.0000      -7.122092      -193.8020 
   1   2.0000      -0.593906       -16.1610 
   2   2.0000      -0.414765       -11.2863 
   3   2.0000      -0.414765       -11.2863 
   4   0.0000      -0.022778        -0.6198 
   5   0.0000       0.026864         0.7310 
   6   0.0000       0.103268         2.8101 
   7   0.0000       0.103273         2.8102 
   8   0.0000       0.115581         3.1451 
   9   0.0000       0.115595         3.1455 
  10   0.0000       0.129595         3.5265 
  11   0.0000       0.140335         3.8187 
  12   0.0000       0.140347         3.8190 
  13   0.0000       0.183118         4.9829 
  14   0.0000       0.188487         5.1290 
  15   0.0000       0.270753         7.3676 
  16   0.0000       0.275405         7.4942 
  17   0.0000       0.275414         7.4944 
  18   0.0000       0.307384         8.3644 
  19   0.0000       0.321863         8.7583 
  20   0.0000       0.321866         8.7584 
  21   0.0000       0.333780         9.0826 
  22   0.0000       0.333805         9.0833 
  23   0.0000       0.353725         9.6253 
  24   0.0000       0.397655        10.8207 
  25   0.0000       0.420946        11.4545 
  26   0.0000       0.420955        11.4548 
  27   0.0000       0.594160        16.1679 
  28   0.0000       0.607609        16.5339 
  29   0.0000       0.607624        16.5343 
  30   0.0000       0.615440        16.7470 
  31   0.0000       0.615446        16.7471 
  32   0.0000       0.765422        20.8282 
  33   0.0000       0.939659        25.5694 
  34   0.0000       0.939667        25.5696 
  35   0.0000       0.994756        27.0687 
  36   0.0000       1.013279        27.5727 
  37   0.0000       1.074490        29.2384 
  38   0.0000       1.077725        29.3264 
  39   0.0000       1.077784        29.3280 
  40   0.0000       1.131163        30.7805 
  41   0.0000       1.131167        30.7806 
  42   0.0000       1.149873        31.2896 
  43   0.0000       1.322533        35.9879 
  44   0.0000       1.322545        35.9883 
  45   0.0000       1.552007        42.2322 
  46   0.0000       1.586841        43.1801 
  47   0.0000       1.586846        43.1803 
  48   0.0000       1.985686        54.0333 
  49   0.0000       1.985716        54.0341 
  50   0.0000       2.059133        56.0319 
  51   0.0000       2.080012        56.6000 
  52   0.0000       2.080025        56.6004 
  53   0.0000       2.117465        57.6191 
  54   0.0000       2.137027        58.1514 
  55   0.0000       2.137039        58.1518 
  56   0.0000       2.396772        65.2195 
  57   0.0000       2.527373        68.7733 
  58   0.0000       2.527409        68.7743 
  59   0.0000       2.540416        69.1282 
  60   0.0000       3.054935        83.1290 
  61   0.0000       3.054982        83.1303 
  62   0.0000       3.208154        87.2983 
  63   0.0000       3.306786        89.9822 
  64   0.0000       3.612735        98.3075 
  65   0.0000       3.612743        98.3077 
  66   0.0000       3.723221       101.3140 
  67   0.0000       3.723229       101.3142 
  68   0.0000       3.870434       105.3199 
  69   0.0000       3.985331       108.4464 
  70   0.0000       4.032067       109.7181 
  71   0.0000       4.058358       110.4335 
  72   0.0000       4.058370       110.4339 
  73   0.0000       4.155010       113.0636 
  74   0.0000       4.155016       113.0637 
  75   0.0000       4.220182       114.8370 
  76   0.0000       4.392049       119.5137 
  77   0.0000       4.392052       119.5138 
  78   0.0000       4.564151       124.1969 
  79   0.0000       4.564164       124.1972 
  80   0.0000       4.721417       128.4763 
  81   0.0000       4.721421       128.4764 
  82   0.0000       4.728357       128.6651 
  83   0.0000       4.911321       133.6438 
  84   0.0000       4.911323       133.6439 
  85   0.0000       5.249334       142.8416 
  86   0.0000       5.668847       154.2572 
  87   0.0000      15.899504       432.6475 

                    ********************************
                    * MULLIKEN POPULATION ANALYSIS *
                    ********************************

-----------------------
MULLIKEN ATOMIC CHARGES
-----------------------
   0 B :   -0.015674
   1 H :    0.005294
   2 H :    0.005294
   3 H :    0.005086
Sum of atomic charges:   -0.0000000

--------------------------------
MULLIKEN REDUCED ORBITAL CHARGES
--------------------------------
  0 B s       :     3.029346  s :     3.029346
      pz      :     0.000000  p :     1.904630
      px      :     0.952279
      py      :     0.952351
      dz2     :     0.006882  d :     0.076548
      dxz     :     0.000000
      dyz     :    -0.000000
      dx2y2   :     0.034827
      dxy     :     0.034839
      f0      :     0.000000  f :     0.005150
      f+1     :     0.000993
      f-1     :     0.000994
      f+2     :     0.000000
      f-2     :     0.000000
      f+3     :     0.003162
      f-3     :     0.000000
  1 H s       :     0.972671  s :     0.972671
      pz      :     0.000000  p :     0.021443
      px      :     0.010809
      py      :     0.010633
      dz2     :     0.000005  d :     0.000592
      dxz     :     0.000000
      dyz     :     0.000000
      dx2y2   :     0.000403
      dxy     :     0.000184
  2 H s       :     0.972671  s :     0.972671
      pz      :    -0.000000  p :     0.021443
      px      :     0.010809
      py      :     0.010633
      dz2     :     0.000005  d :     0.000592
      dxz     :     0.000000
      dyz     :     0.000000
      dx2y2   :     0.000403
      dxy     :     0.000184
  3 H s       :     0.972871  s :     0.972871
      pz      :    -0.000000  p :     0.021451
      px      :     0.010549
      py      :     0.010902
      dz2     :     0.000005  d :     0.000592
      dxz     :     0.000000
      dyz     :     0.000000
      dx2y2   :     0.000074
      dxy     :     0.000513


                     *******************************
                     * LOEWDIN POPULATION ANALYSIS *
                     *******************************

----------------------
LOEWDIN ATOMIC CHARGES
----------------------
   0 B :    0.249389
   1 H :   -0.083128
   2 H :   -0.083128
   3 H :   -0.083132

-------------------------------
LOEWDIN REDUCED ORBITAL CHARGES
-------------------------------
  0 B s       :     2.723707  s :     2.723707
      pz      :     0.000000  p :     1.813847
      px      :     0.906922
      py      :     0.906924
      dz2     :     0.022729  d :     0.193757
      dxz     :     0.000000
      dyz     :     0.000000
      dx2y2   :     0.085513
      dxy     :     0.085514
      f0      :     0.000000  f :     0.019301
      f+1     :     0.003602
      f-1     :     0.003602
      f+2     :     0.000000
      f-2     :     0.000000
      f+3     :     0.012098
      f-3     :     0.000000
  1 H s       :     0.867394  s :     0.867394
      pz      :     0.000000  p :     0.206277
      px      :     0.089560
      py      :     0.116717
      dz2     :     0.001262  d :     0.009457
      dxz     :     0.000000
      dyz     :     0.000000
      dx2y2   :     0.004174
      dxy     :     0.004021
  2 H s       :     0.867394  s :     0.867394
      pz      :     0.000000  p :     0.206277
      px      :     0.089560
      py      :     0.116717
      dz2     :     0.001262  d :     0.009457
      dxz     :     0.000000
      dyz     :     0.000000
      dx2y2   :     0.004174
      dxy     :     0.004021
  3 H s       :     0.867399  s :     0.867399
      pz      :     0.000000  p :     0.206276
      px      :     0.130294
      py      :     0.075981
      dz2     :     0.001262  d :     0.009457
      dxz     :     0.000000
      dyz     :     0.000000
      dx2y2   :     0.003945
      dxy     :     0.004250


                      *****************************
                      * MAYER POPULATION ANALYSIS *
                      *****************************

  NA   - Mulliken gross atomic population
  ZA   - Total nuclear charge
  QA   - Mulliken gross atomic charge
  VA   - Mayer's total valence
  BVA  - Mayer's bonded valence
  FA   - Mayer's free valence

  ATOM       NA         ZA         QA         VA         BVA        FA
  0 B      5.0157     5.0000    -0.0157     2.9892     2.9892    -0.0000
  1 H      0.9947     1.0000     0.0053     1.0177     1.0177    -0.0000
  2 H      0.9947     1.0000     0.0053     1.0177     1.0177    -0.0000
  3 H      0.9949     1.0000     0.0051     1.0177     1.0177     0.0000

  Mayer bond orders larger than 0.100000
B(  0-B ,  1-H ) :   0.9964 B(  0-B ,  2-H ) :   0.9964 B(  0-B ,  3-H ) :   0.9964 


-------
TIMINGS
-------

Total SCF time: 0 days 0 hours 0 min 1 sec 

Total time                  ....       1.245 sec
Sum of individual times     ....       1.143 sec  ( 91.8%)

Fock matrix formation       ....       0.874 sec  ( 70.2%)
  XC integration            ....       0.095 sec  ( 10.8% of F)
    Basis function eval.    ....       0.013 sec  ( 14.0% of XC)
    Density eval.           ....       0.008 sec  (  8.1% of XC)
    XC-Functional eval.     ....       0.005 sec  (  5.1% of XC)
    XC-Potential eval.      ....       0.013 sec  ( 13.8% of XC)
Diagonalization             ....       0.008 sec  (  0.6%)
Density matrix formation    ....       0.004 sec  (  0.3%)
Population analysis         ....       0.003 sec  (  0.2%)
Initial guess               ....       0.133 sec  ( 10.7%)
Orbital Transformation      ....       0.000 sec  (  0.0%)
Orbital Orthonormalization  ....       0.000 sec  (  0.0%)
DIIS solution               ....       0.004 sec  (  0.3%)
SOSCF solution              ....       0.001 sec  (  0.1%)
Grid generation             ....       0.117 sec  (  9.4%)


           ************************************************************
           *        Program running with 24 parallel MPI-processes    *
           *              working on a common directory               *
           ************************************************************

------------------------------------------------------------------------------
                                ORCA  MP2 
------------------------------------------------------------------------------

Freezing NCore=2 chemical core electrons

-------------
RI-MP2 ENERGY
-------------
Dimension of the basis                    ...   88
Memory devoted to MP2                     ... 5000 MB   
Data format for buffers                   ... DOUBLE
Compression type for matrix containers    ... UNCOMPRESSED
Overall scaling of the MP2 energy         ...   2.700e-01
Calculating two index integrals           ... done (    0.001 sec)
Cholesky decomposition of V**-1           ... done (    0.005 sec)

-----------------
RI-TRANSFORMATION (AUX index driven)
-----------------

Dimension of the orbital-basis         ... 88
Dimension of the aux-basis             ... 209
Transformation of internal/external MOs...    1-   3 to    4-  87
Number Format for Storage              ... Double (8 Byte)
Integral mode                          ... Direct

First Phase: integral generation and transformation of MO indices
  Aux angular momentum 0               ... done (    0.000 sec)
  Aux angular momentum 1               ... done (    0.000 sec)
  Aux angular momentum 2               ... done (    0.000 sec)
  Aux angular momentum 3               ... done (    0.001 sec)
  Aux angular momentum 4               ... done (    0.001 sec)
Closing buffer VIA ( 0.00 GB; CompressionRatio= 0.99)
  Phase 1 completed in     0.116 sec
Second Phase: sorting and transformation of aux index

IA-Transformation
Memory available                       ... 5000 MB 
Max. # MO pairs treated in a batch     ... 1    
# of internal orbitals                 ... 3
# batches for internal orbitals        ... 1
Closing buffer IAV ( 0.00 GB; CompressionRatio= 1.00)
(ia|v) transformation done in     0.001 sec

  Phase 2 completed in     0.004 sec
RI-Integral transformation completed in     0.121 sec
Opening buffers                              ... done

Starting loop over batches of integrals:

Operator 0  - window                       ... (  1-  3)x(  4- 87)
Operator 0  - Memory available             ...  5000 MB
Operator 0  - Memory needed per MO         ...   0.1 MB
Operator 0  - Number of orbitals per batch ... 1
Operator 0  - Number of batches            ... 1

OPERATOR  0   PASS   0:  MOs     1 ...    1 +    2 ...    2 +    3 ...    3
  Reading integrals       ... ok
Time spent in pair loops =     0.001 sec
Deleting buffer (Ka|jb)[aa] ...done

-----------------------------------------------
 RI-MP2 CORRELATION ENERGY:     -0.036964978 Eh
-----------------------------------------------


-------
TIMINGS
-------

Total time                :    0.142 sec
Integral trafo            :    0.134 sec ( 94.3%)
I/O of integrals          :    0.000 sec (  0.1%)
K(i,j) Operators          :    0.000 sec (  0.1%)
T(i,j) pair energies      :    0.000 sec (  0.0%)
V-calculation             :    0.001 sec (  0.9%)
V**(-1/2)                 :    0.005 sec (  3.6%)
Gamma(ia|P)               :    0.000 sec (  0.0%)
Gamma-Trafo               :    0.000 sec (  0.0%)
D(virtual)                :    0.000 sec (  0.0%)
D(internal)               :    0.000 sec (  0.0%)
W(virtual)                :    0.000 sec (  0.0%)
W(internal)               :    0.000 sec (  0.0%)
L(virtual)                :    0.000 sec (  0.0%)
L(internal)               :    0.000 sec (  0.0%)
G(D)                      :    0.000 sec (  0.0%)
G(Z)                      :    0.000 sec (  0.0%)
Z-Vector Solution         :    0.000 sec (  0.0%)
Z-Vector Solution         :    0.000 sec (  0.0%)
3-Index Derivative 
+ Separable RIJ part      :    0.000 sec (  0.0%)
2-Index Derivative 
+ Separable RIJ part      :    0.000 sec (  0.0%)
Separable Gradient (X)    :    0.000 sec (  0.0%)


---------------------------------------
MP2 TOTAL ENERGY:      -26.580857446 Eh
---------------------------------------


-------------------------------------------------------------------------------
                          DFT DISPERSION CORRECTION                            
                                                                               
                              DFTD3 V3.1  Rev 1                                
                          USING Becke-Johnson damping                          
-------------------------------------------------------------------------------
The B2PLYP functional is recognized
Active option DFTDOPT                   ...         4   

molecular C6(AA) [au] = 119.561588 


            DFT-D V3
 parameters
 s6 scaling factor         :     0.6400 
 a1 scaling factor         :     0.3065 
 s8 scaling factor         :     0.9147 
 a2 scaling factor         :     5.0570 
 ad hoc parameters k1-k3   :    16.0000     1.3333    -4.0000 

 Edisp/kcal,au: -0.376978005161  -0.000600752627 
 E6   /kcal   :  -0.226129678 
 E8   /kcal   :  -0.150848327 
 % E8         :  40.015153346 

-------------------------   ----------------
Dispersion correction           -0.000600753
-------------------------   ----------------


-------------------------   --------------------
FINAL SINGLE POINT ENERGY       -26.581458198453
-------------------------   --------------------


                            ***************************************
                            *     ORCA property calculations      *
                            ***************************************


  WARNING: The energy has been calculated at the MP2 level but the densities
           used in the property calculations are still SCF densities
           MP2 response densities have not been calculated 
           use %mp2 Density relaxed end
           or  %mp2 Density unrelaxed end

                                    ---------------------
                                    Active property flags
                                    ---------------------
   (+) Dipole Moment


------------------------------------------------------------------------------
                       ORCA ELECTRIC PROPERTIES CALCULATION
------------------------------------------------------------------------------

Dipole Moment Calculation                       ... on
Quadrupole Moment Calculation                   ... off
Polarizability Calculation                      ... off
GBWName                                         ... 169_b.gbw
Electron density file                           ... 169_b.scfp
The origin for moment calculation is the CENTER OF MASS  = ( 0.000000,  0.000000  0.000000)

-------------
DIPOLE MOMENT
-------------
                                X             Y             Z
Electronic contribution:     -0.00000      -0.00000       0.00000
Nuclear contribution   :      0.00000       0.00000       0.00000
                        -----------------------------------------
Total Dipole Moment    :     -0.00000      -0.00000       0.00000
                        -----------------------------------------
Magnitude (a.u.)       :      0.00000
Magnitude (Debye)      :      0.00000



--------------------
Rotational spectrum 
--------------------
 
Rotational constants in cm-1:     7.741042     7.740977     3.870505 
Rotational constants in MHz : 232070.613118 232068.644801 116034.814478 

 Dipole components along the rotational axes: 
x,y,z [a.u.] :    -0.000001    -0.000000     0.000000 
x,y,z [Debye]:    -0.000001    -0.000000     0.000000 

 

Timings for individual modules:

Sum of individual times         ...        3.002 sec (=   0.050 min)
GTO integral calculation        ...        0.670 sec (=   0.011 min)  22.3 %
SCF iterations                  ...        1.659 sec (=   0.028 min)  55.3 %
MP2 module                      ...        0.673 sec (=   0.011 min)  22.4 %
                             ****ORCA TERMINATED NORMALLY****
TOTAL RUN TIME: 0 days 0 hours 0 minutes 3 seconds 627 msec
