
                                 *****************
                                 * O   R   C   A *
                                 *****************

           --- An Ab Initio, DFT and Semiempirical electronic structure package ---

                  #######################################################
                  #                        -***-                        #
                  #          Department of theory and spectroscopy      #
                  #               Directorship: Frank Neese             #
                  #        Max Planck Institute fuer Kohlenforschung    #
                  #                Kaiser Wilhelm Platz 1               #
                  #                 D-45470 Muelheim/Ruhr               #
                  #                      Germany                        #
                  #                                                     #
                  #                  All rights reserved                #
                  #                        -***-                        #
                  #######################################################


                         Program Version 4.2.0 -  RELEASE  -


 With contributions from (in alphabetic order):
   Daniel Aravena         : Magnetic Suceptibility
   Michael Atanasov       : Ab Initio Ligand Field Theory (pilot matlab implementation)
   Alexander A. Auer      : GIAO ZORA, VPT2
   Ute Becker             : Parallelization
   Giovanni Bistoni       : ED, misc. LED, open-shell LED, HFLED
   Martin Brehm           : Molecular dynamics
   Dmytro Bykov           : SCF Hessian
   Vijay G. Chilkuri      : MRCI spin determinant printing, contributions to CSF-ICE
   Dipayan Datta          : RHF DLPNO-CCSD density
   Achintya Kumar Dutta   : EOM-CC, STEOM-CC
   Dmitry Ganyushin       : Spin-Orbit,Spin-Spin,Magnetic field MRCI
   Miquel Garcia          : C-PCM Hessian, Gaussian charge scheme
   Yang Guo               : DLPNO-NEVPT2, CIM, IAO-localization
   Andreas Hansen         : Spin unrestricted coupled pair/coupled cluster methods
   Benjamin Helmich-Paris : CASSCF linear response (MC-RPA)
   Lee Huntington         : MR-EOM, pCC
   Robert Izsak           : Overlap fitted RIJCOSX, COSX-SCS-MP3, EOM
   Christian Kollmar      : KDIIS, OOCD, Brueckner-CCSD(T), CCSD density
   Simone Kossmann        : Meta GGA functionals, TD-DFT gradient, OOMP2, MP2 Hessian
   Martin Krupicka        : AUTO-CI
   Lucas Lang             : DCDCAS
   Dagmar Lenk            : GEPOL surface, SMD
   Dimitrios Liakos       : Extrapolation schemes; Compound Job, initial MDCI parallelization
   Dimitrios Manganas     : Further ROCIS development; embedding schemes
   Dimitrios Pantazis     : SARC Basis sets
   Taras Petrenko         : DFT Hessian,TD-DFT gradient, ASA, ECA, R-Raman, ABS, FL, XAS/XES, NRVS
   Peter Pinski           : DLPNO-MP2, DLPNO-MP2 Gradient
   Christoph Reimann      : Effective Core Potentials
   Marius Retegan         : Local ZFS, SOC
   Christoph Riplinger    : Optimizer, TS searches, QM/MM, DLPNO-CCSD(T), (RO)-DLPNO pert. Triples
   Tobias Risthaus        : Range-separated hybrids, TD-DFT gradient, RPA, STAB
   Michael Roemelt        : Original ROCIS implementation
   Masaaki Saitow         : Open-shell DLPNO-CCSD energy and density
   Barbara Sandhoefer     : DKH picture change effects
   Avijit Sen             : IP-ROCIS
   Kantharuban Sivalingam : CASSCF convergence, NEVPT2, FIC-MRCI
   Bernardo de Souza      : ESD, SOC TD-DFT
   Georgi Stoychev        : AutoAux, RI-MP2 NMR
   Willem Van den Heuvel  : Paramagnetic NMR
   Boris Wezisla          : Elementary symmetry handling
   Frank Wennmohs         : Technical directorship


 We gratefully acknowledge several colleagues who have allowed us to
 interface, adapt or use parts of their codes:
   Stefan Grimme, W. Hujo, H. Kruse,             : VdW corrections, initial TS optimization,
                  C. Bannwarth                     DFT functionals, gCP, sTDA/sTD-DF
   Ed Valeev, F. Pavosevic, A. Kumar             : LibInt (2-el integral package), F12 methods
   Garnet Chan, S. Sharma, J. Yang, R. Olivares  : DMRG
   Ulf Ekstrom                                   : XCFun DFT Library
   Mihaly Kallay                                 : mrcc  (arbitrary order and MRCC methods)
   Andreas Klamt, Michael Diedenhofen            : otool_cosmo (COSMO solvation model)
   Jiri Pittner, Ondrej Demel                    : Mk-CCSD
   Frank Weinhold                                : gennbo (NPA and NBO analysis)
   Christopher J. Cramer and Donald G. Truhlar   : smd solvation model
   Lars Goerigk                                  : TD-DFT with DH, B97 family of functionals
   V. Asgeirsson, H. Jonsson                     : NEB implementation
   FAccTs GmbH                                   : IRC, NEB, NEB-TS, Multilevel, MM, QM/MM, CI optimization
   S Lehtola, MJT Oliveira, MAL Marques          : LibXC Library


 Your calculation uses the libint2 library for the computation of 2-el integrals
 For citations please refer to: http://libint.valeyev.net

 Your ORCA version has been built with support for libXC version: 4.2.3
 For citations please refer to: https://tddft.org/programs/libxc/

 This ORCA versions uses:
   CBLAS   interface :  Fast vector & matrix operations
   LAPACKE interface :  Fast linear algebra routines
   SCALAPACK package :  Parallel linear algebra routines


Your calculation utilizes the atom-pairwise dispersion correction
with the Becke-Johnson damping scheme (D3BJ)
Cite in your paper:
S.Grimme, S.Ehrlich, L.Goerigk, J Comput Chem, (2011), 32, 1456–1465 
S.Grimme, J.Antony, S.Ehrlich and H.Krieg, J.Chem.Phys., 132, (2010), 154104 
   

----- Orbital basis set information -----
Your calculation utilizes the basis: def2-TZVPPD
   F. Weigend and R. Ahlrichs, Phys. Chem. Chem. Phys. 7, 3297 (2005).
   D. Rappoport and F. Furche, J. Chem. Phys. 133 134105 (2010).

----- AuxC basis set information -----
Your calculation utilizes the auxiliary basis: def2-TZVPPD/C
   A. Hellweg, C. Hattig, S. Hofener and W. Klopper, Theor. Chem. Acc. 117, 587 (2007).

----- AuxJK basis set information -----
Your calculation utilizes the auxiliary basis: def2/JK
   H-Ba, Hf-Rn: F. Weigend, J. Comput. Chem. 29, 167 (2008).

================================================================================
                                        WARNINGS
                       Please study these warnings very carefully!
================================================================================


WARNING: No MP2 level density has been requested!
         To caclulate MP2 level properties use
         %mp2 Density relaxed end
         or
         %mp2 Density unrelaxed end
         Otherwise for double-hybrid DFT only the energy is correct!

WARNING: The frozen-core approximation is turned on by default for 
         the MP2 part of double-hybrid DFT.

INFO   : the flag for use of LIBINT has been found!

================================================================================
                                       INPUT FILE
================================================================================
NAME = 170_c.in
|  1> #
|  2> # 170_c ri-B2PLYP-D3BJ/Def2-TZVPPD
|  3> #
|  4> ! rijk ri-b2plyp d3bj def2-tzvppd def2/jk def2-tzvppd/c grid4 nofinalgrid
|  5> 
|  6> *xyz 0 1
|  7> C          0.00000        0.00000        0.00000
|  8> H          0.63307        0.63307       -0.63307
|  9> H         -0.63307       -0.63307       -0.63307
| 10> H          0.63307       -0.63307        0.63307
| 11> H         -0.63307        0.63307        0.63307
| 12> *
| 13> 
| 14> %maxcore 5000
| 15> 
| 16> %pal
| 17> nprocs = 24
| 18> end
| 19> 
| 20> 
| 21>                          ****END OF INPUT****
================================================================================

                       ****************************
                       * Single Point Calculation *
                       ****************************

---------------------------------
CARTESIAN COORDINATES (ANGSTROEM)
---------------------------------
  C      0.000000    0.000000    0.000000
  H      0.633070    0.633070   -0.633070
  H     -0.633070   -0.633070   -0.633070
  H      0.633070   -0.633070    0.633070
  H     -0.633070    0.633070    0.633070

----------------------------
CARTESIAN COORDINATES (A.U.)
----------------------------
  NO LB      ZA    FRAG     MASS         X           Y           Z
   0 C     6.0000    0    12.011    0.000000    0.000000    0.000000
   1 H     1.0000    0     1.008    1.196329    1.196329   -1.196329
   2 H     1.0000    0     1.008   -1.196329   -1.196329   -1.196329
   3 H     1.0000    0     1.008    1.196329   -1.196329    1.196329
   4 H     1.0000    0     1.008   -1.196329    1.196329    1.196329

--------------------------------
INTERNAL COORDINATES (ANGSTROEM)
--------------------------------
 C      0   0   0     0.000000000000     0.00000000     0.00000000
 H      1   0   0     1.096509404748     0.00000000     0.00000000
 H      1   2   0     1.096509404748   109.47122063     0.00000000
 H      1   2   3     1.096509404748   109.47122063   120.00000000
 H      1   2   3     1.096509404748   109.47122063   240.00000000

---------------------------
INTERNAL COORDINATES (A.U.)
---------------------------
 C      0   0   0     0.000000000000     0.00000000     0.00000000
 H      1   0   0     2.072102478242     0.00000000     0.00000000
 H      1   2   0     2.072102478242   109.47122063     0.00000000
 H      1   2   3     2.072102478242   109.47122063   120.00000000
 H      1   2   3     2.072102478242   109.47122063   240.00000000

---------------------
BASIS SET INFORMATION
---------------------
There are 2 groups of distinct atoms

 Group   1 Type C   : 12s6p3d1f contracted to 6s3p3d1f pattern {621111/411/111/1}
 Group   2 Type H   : 5s3p1d contracted to 3s3p1d pattern {311/111/1}

Atom   0C    basis set group =>   1
Atom   1H    basis set group =>   2
Atom   2H    basis set group =>   2
Atom   3H    basis set group =>   2
Atom   4H    basis set group =>   2
---------------------------------
AUXILIARY/C BASIS SET INFORMATION
---------------------------------
There are 2 groups of distinct atoms

 Group   1 Type C   : 9s7p6d4f1g contracted to 9s7p5d4f1g pattern {111111111/1111111/21111/1111/1}
 Group   2 Type H   : 5s4p3d1f contracted to 5s4p3d1f pattern {11111/1111/111/1}

Atom   0C    basis set group =>   1
Atom   1H    basis set group =>   2
Atom   2H    basis set group =>   2
Atom   3H    basis set group =>   2
Atom   4H    basis set group =>   2
----------------------------------
AUXILIARY/JK BASIS SET INFORMATION
----------------------------------
There are 2 groups of distinct atoms

 Group   1 Type C   : 14s10p6d2f1g contracted to 10s8p5d1f1g pattern {5111111111/31111111/21111/2/1}
 Group   2 Type H   : 4s2p2d contracted to 2s2p2d pattern {31/11/11}

Atom   0C    basis set group =>   1
Atom   1H    basis set group =>   2
Atom   2H    basis set group =>   2
Atom   3H    basis set group =>   2
Atom   4H    basis set group =>   2


           ************************************************************
           *        Program running with 24 parallel MPI-processes    *
           *              working on a common directory               *
           ************************************************************
------------------------------------------------------------------------------
                           ORCA GTO INTEGRAL CALCULATION
                           -- RI-GTO INTEGRALS CHOSEN --
------------------------------------------------------------------------------

                         BASIS SET STATISTICS AND STARTUP INFO

Gaussian basis set:
 # of primitive gaussian shells          ...   58
 # of primitive gaussian functions       ...  128
 # of contracted shells                  ...   41
 # of contracted basis functions         ...  105
 Highest angular momentum                ...    3
 Maximum contraction depth               ...    6
Auxiliary gaussian basis set:
 # of primitive gaussian shells          ...   65
 # of primitive gaussian functions       ...  177
 # of contracted shells                  ...   49
 # of contracted aux-basis functions     ...  147
 Highest angular momentum                ...    4
 Maximum contraction depth               ...    5
Ratio of auxiliary to basis functions    ...  1.40
Integral package used                  ... LIBINT
 One Electron integrals                  ... done
 Ordering auxiliary basis shells         ... done
 Integral threshhold             Thresh  ...  1.000e-10
 Primitive cut-off               TCut    ...  1.000e-11
 Pre-screening matrix                    ... done
 Shell pair data                         ... 
 Ordering of the shell pairs             ... done (   0.000 sec) 861 of 861 pairs
 Determination of significant pairs      ... done (   0.000 sec)
 Creation of shell pair data             ... done (   0.000 sec)
 Storage of shell pair data              ... done (   0.008 sec)
 Shell pair data done in (   0.008 sec)
 Computing two index integrals           ... done
 Cholesky decomposition of the V-matrix  ... done


Timings:
 Total evaluation time                   ...   0.166 sec (  0.003 min)
 One electron matrix time                ...   0.015 sec (  0.000 min) =  9.1%
 Schwartz matrix evaluation time         ...   0.117 sec (  0.002 min) = 70.6%
 Two index repulsion integral time       ...   0.001 sec (  0.000 min) =  0.3%
 Cholesky decomposition of V             ...   0.001 sec (  0.000 min) =  0.6%
 Three index repulsion integral time     ...   0.000 sec (  0.000 min) =  0.0%



           ************************************************************
           *        Program running with 24 parallel MPI-processes    *
           *              working on a common directory               *
           ************************************************************
-------------------------------------------------------------------------------
                                 ORCA SCF
-------------------------------------------------------------------------------

------------
SCF SETTINGS
------------
Hamiltonian:
 Density Functional     Method          .... DFT(GTOs)
 Exchange Functional    Exchange        .... B88
   X-Alpha parameter    XAlpha          ....  0.666667
   Becke's b parameter  XBeta           ....  0.004200
 Correlation Functional Correlation     .... LYP
 LDA part of GGA corr.  LDAOpt          .... VWN-3
 Gradients option       PostSCFGGA      .... off
 Hybrid DFT is turned on
   Fraction HF Exchange ScalHFX         ....  0.530000
   Scaling of DF-GGA-X  ScalDFX         ....  0.470000
   Scaling of DF-GGA-C  ScalDFC         ....  0.730000
   Scaling of DF-LDA-C  ScalLDAC        ....  0.730000
   Perturbative correction              ....  0.270000
   Density functional embedding theory  .... OFF
 RI-approximation to the Coulomb term is turned on
   Number of auxiliary basis functions  .... 147
   RI-JK (J+K treated both via RI)      .... on


General Settings:
 Integral files         IntName         .... 170_c
 Hartree-Fock type      HFTyp           .... RHF
 Total Charge           Charge          ....    0
 Multiplicity           Mult            ....    1
 Number of Electrons    NEL             ....   10
 Basis Dimension        Dim             ....  105
 Nuclear Repulsion      ENuc            ....     13.3556302860 Eh

Convergence Acceleration:
 DIIS                   CNVDIIS         .... on
   Start iteration      DIISMaxIt       ....    12
   Startup error        DIISStart       ....  0.200000
   # of expansion vecs  DIISMaxEq       ....     5
   Bias factor          DIISBfac        ....   1.050
   Max. coefficient     DIISMaxC        ....  10.000
 Newton-Raphson         CNVNR           .... off
 SOSCF                  CNVSOSCF        .... on
   Start iteration      SOSCFMaxIt      ....   150
   Startup grad/error   SOSCFStart      ....  0.003300
 Level Shifting         CNVShift        .... on
   Level shift para.    LevelShift      ....    0.2500
   Turn off err/grad.   ShiftErr        ....    0.0010
 Zerner damping         CNVZerner       .... off
 Static damping         CNVDamp         .... on
   Fraction old density DampFac         ....    0.7000
   Max. Damping (<1)    DampMax         ....    0.9800
   Min. Damping (>=0)   DampMin         ....    0.0000
   Turn off err/grad.   DampErr         ....    0.1000
 Fernandez-Rico         CNVRico         .... off

SCF Procedure:
 Maximum # iterations   MaxIter         ....   125
 SCF integral mode      SCFMode         .... Direct
   Integral package                     .... LIBINT
 Reset frequency        DirectResetFreq ....    20
 Integral Threshold     Thresh          ....  1.000e-10 Eh
 Primitive CutOff       TCut            ....  1.000e-11 Eh

Convergence Tolerance:
 Convergence Check Mode ConvCheckMode   .... Total+1el-Energy
 Convergence forced     ConvForced      .... 0
 Energy Change          TolE            ....  1.000e-06 Eh
 1-El. energy change                    ....  1.000e-03 Eh
 Orbital Gradient       TolG            ....  5.000e-05
 Orbital Rotation angle TolX            ....  5.000e-05
 DIIS Error             TolErr          ....  1.000e-06


Diagonalization of the overlap matrix:
Smallest eigenvalue                        ... 3.157e-05
Time for diagonalization                   ...    0.003 sec
Threshold for overlap eigenvalues          ... 1.000e-08
Number of eigenvalues below threshold      ... 0
Time for construction of square roots      ...    0.002 sec
Total time needed                          ...    0.005 sec

-------------------
DFT GRID GENERATION
-------------------

General Integration Accuracy     IntAcc      ...  4.670
Radial Grid Type                 RadialGrid  ... Gauss-Chebyshev
Angular Grid (max. acc.)         AngularGrid ... Lebedev-302
Angular grid pruning method      GridPruning ... 3 (G Style)
Weight generation scheme         WeightScheme... Becke
Basis function cutoff            BFCut       ...    1.0000e-10
Integration weight cutoff        WCut        ...    1.0000e-14
Grids for H and He will be reduced by one unit

# of grid points (after initial pruning)     ...  19788 (   0.0 sec)
# of grid points (after weights+screening)   ...  19280 (   0.0 sec)
nearest neighbour list constructed           ...    0.0 sec
Grid point re-assignment to atoms done       ...    0.0 sec
Grid point division into batches done        ...    0.1 sec
Reduced shell lists constructed in    0.1 sec

Total number of grid points                  ...    19280
Total number of batches                      ...      304
Average number of points per batch           ...       63
Average number of grid points per atom       ...     3856
Average number of shells per batch           ...    37.79 (92.16%)
Average number of basis functions per batch  ...    97.21 (92.59%)
Average number of large shells per batch     ...    37.21 (98.49%)
Average number of large basis fcns per batch ...    96.07 (98.82%)
Average number of aux-shells per batch       ...    37.79 (77.11%)
Average number of aux functions per batch    ...    97.21 (66.13%)
Maximum spatial batch extension              ...   1.25,  1.25,  1.25 au
Average spatial batch extension              ...   0.05,  0.05,  0.04 au

Time for grid setup =    0.112 sec

------------------------------
INITIAL GUESS: MODEL POTENTIAL
------------------------------
Loading Hartree-Fock densities                     ... done
Calculating cut-offs                               ... done
Setting up the integral package                    ... done
Initializing the effective Hamiltonian             ... done
Starting the Coulomb interaction                   ... done (   0.0 sec)
Reading the grid                                   ... done
Mapping shells                                     ... done
Starting the XC term evaluation                    ... done (   0.0 sec)
  promolecular density results
     # of electrons  =      9.998043414
     EX              =     -6.303356733
     EC              =     -0.082073912
     EX+EC           =     -6.385430645
Transforming the Hamiltonian                       ... done (   0.0 sec)
Diagonalizing the Hamiltonian                      ... done (   0.0 sec)
Back transforming the eigenvectors                 ... done (   0.0 sec)
Now organizing SCF variables                       ... done
                      ------------------
                      INITIAL GUESS DONE (   0.2 sec)
                      ------------------
--------------
SCF ITERATIONS
--------------
ITER       Energy         Delta-E        Max-DP      RMS-DP      [F,P]     Damp
  0    -40.3391354470   0.000000000000 0.04177236  0.00098599  0.2297781 0.7000
  1    -40.3209873796   0.018148067404 0.03314054  0.00092683  0.1826544 0.7000
                               ***Turning on DIIS***
  2    -40.3415254713  -0.020538091680 0.05964799  0.00191644  0.0896669 0.0000
  3    -40.3950965995  -0.053571128219 0.00896208  0.00023340  0.1270827 0.7000
  4    -40.4140525561  -0.018955956557 0.00775892  0.00022948  0.1161913 0.7000
  5    -40.4206213431  -0.006568787061 0.01966016  0.00063491  0.0929457 0.0000
  6    -40.4224187861  -0.001797443009 0.00322904  0.00012492  0.0171927 0.0000
  7    -40.4228858761  -0.000467089907 0.00163719  0.00007002  0.0071356 0.0000
                      *** Initiating the SOSCF procedure ***
                           *** Shutting down DIIS ***
                      *** Re-Reading the Fockian *** 
                      *** Removing any level shift *** 
ITER      Energy       Delta-E        Grad      Rot      Max-DP    RMS-DP
  8    -40.42298046  -0.0000945846  0.000481  0.000481  0.000605  0.000030
  9    -40.42298960  -0.0000091377  0.000237  0.000408  0.000312  0.000013
 10    -40.42299014  -0.0000005448  0.000179  0.000081  0.000216  0.000005
                 **** Energy Check signals convergence ****
              ***Rediagonalizing the Fockian in SOSCF/NRSCF***

               *****************************************************
               *                     SUCCESS                       *
               *           SCF CONVERGED AFTER  11 CYCLES          *
               *****************************************************


----------------
TOTAL SCF ENERGY
----------------

Total Energy       :          -40.42299052 Eh           -1099.96549 eV

Components:
Nuclear Repulsion  :           13.35563029 Eh             363.42518 eV
Electronic Energy  :          -53.77862081 Eh           -1463.39067 eV
One Electron Energy:          -79.66234862 Eh           -2167.72271 eV
Two Electron Energy:           25.88372781 Eh             704.33204 eV

Virial components:
Potential Energy   :          -80.62263153 Eh           -2193.85334 eV
Kinetic Energy     :           40.19964101 Eh            1093.88784 eV
Virial Ratio       :            2.00555601


DFT components:
N(Alpha)           :        5.000048146278 electrons
N(Beta)            :        5.000048146278 electrons
N(Total)           :       10.000096292556 electrons
E(X)               :       -3.087854466167 Eh       
E(C)               :       -0.214671268587 Eh       
E(XC)              :       -3.302525734754 Eh       
DFET-embed. en.    :        0.000000000000 Eh       

---------------
SCF CONVERGENCE
---------------

  Last Energy change         ...   -3.7975e-07  Tolerance :   1.0000e-06
  Last MAX-Density change    ...    6.9435e-05  Tolerance :   1.0000e-05
  Last RMS-Density change    ...    1.5966e-06  Tolerance :   1.0000e-06
  Last Orbital Gradient      ...    8.4331e-06  Tolerance :   5.0000e-05
  Last Orbital Rotation      ...    1.2277e-05  Tolerance :   5.0000e-05

             **** THE GBW FILE WAS UPDATED (170_c.gbw) ****
             **** DENSITY FILE WAS UPDATED (170_c.scfp) ****
             **** ENERGY FILE WAS UPDATED (170_c.en.tmp) ****
             **** THE GBW FILE WAS UPDATED (170_c.gbw) ****
             **** DENSITY FILE WAS UPDATED (170_c.scfp) ****
----------------
ORBITAL ENERGIES
----------------

  NO   OCC          E(Eh)            E(eV) 
   0   2.0000     -10.596672      -288.3501 
   1   2.0000      -0.796086       -21.6626 
   2   2.0000      -0.455793       -12.4028 
   3   2.0000      -0.455793       -12.4028 
   4   2.0000      -0.455793       -12.4028 
   5   0.0000       0.038361         1.0439 
   6   0.0000       0.125125         3.4048 
   7   0.0000       0.125125         3.4048 
   8   0.0000       0.125125         3.4048 
   9   0.0000       0.150276         4.0892 
  10   0.0000       0.150276         4.0892 
  11   0.0000       0.150276         4.0892 
  12   0.0000       0.188157         5.1200 
  13   0.0000       0.188157         5.1200 
  14   0.0000       0.251973         6.8565 
  15   0.0000       0.296569         8.0700 
  16   0.0000       0.325163         8.8481 
  17   0.0000       0.325163         8.8481 
  18   0.0000       0.325163         8.8481 
  19   0.0000       0.336268         9.1503 
  20   0.0000       0.336270         9.1504 
  21   0.0000       0.336271         9.1504 
  22   0.0000       0.347893         9.4666 
  23   0.0000       0.347893         9.4667 
  24   0.0000       0.347894         9.4667 
  25   0.0000       0.447629        12.1806 
  26   0.0000       0.447629        12.1806 
  27   0.0000       0.525179        14.2908 
  28   0.0000       0.525179        14.2908 
  29   0.0000       0.525179        14.2908 
  30   0.0000       0.653276        17.7766 
  31   0.0000       0.753624        20.5072 
  32   0.0000       0.769736        20.9456 
  33   0.0000       0.769740        20.9457 
  34   0.0000       0.769741        20.9457 
  35   0.0000       0.855317        23.2744 
  36   0.0000       0.855317        23.2744 
  37   0.0000       1.103444        30.0262 
  38   0.0000       1.103444        30.0262 
  39   0.0000       1.103444        30.0262 
  40   0.0000       1.113646        30.3038 
  41   0.0000       1.113646        30.3038 
  42   0.0000       1.113646        30.3038 
  43   0.0000       1.287451        35.0333 
  44   0.0000       1.287452        35.0333 
  45   0.0000       1.287452        35.0333 
  46   0.0000       1.544917        42.0393 
  47   0.0000       1.565776        42.6069 
  48   0.0000       1.565776        42.6069 
  49   0.0000       1.669742        45.4360 
  50   0.0000       1.669743        45.4360 
  51   0.0000       1.669744        45.4360 
  52   0.0000       1.867328        50.8126 
  53   0.0000       2.036582        55.4182 
  54   0.0000       2.036583        55.4182 
  55   0.0000       2.036583        55.4182 
  56   0.0000       2.807806        76.4043 
  57   0.0000       2.807807        76.4043 
  58   0.0000       2.807808        76.4043 
  59   0.0000       2.826696        76.9183 
  60   0.0000       3.006214        81.8032 
  61   0.0000       3.006214        81.8032 
  62   0.0000       3.006214        81.8032 
  63   0.0000       3.077078        83.7316 
  64   0.0000       3.077078        83.7316 
  65   0.0000       3.077078        83.7316 
  66   0.0000       3.100507        84.3691 
  67   0.0000       3.100507        84.3691 
  68   0.0000       3.471352        94.4603 
  69   0.0000       3.471352        94.4603 
  70   0.0000       3.471352        94.4603 
  71   0.0000       3.570750        97.1651 
  72   0.0000       3.570751        97.1651 
  73   0.0000       3.570751        97.1651 
  74   0.0000       3.627086        98.6980 
  75   0.0000       3.627086        98.6980 
  76   0.0000       3.861439       105.0751 
  77   0.0000       4.078402       110.9790 
  78   0.0000       4.078402       110.9790 
  79   0.0000       4.131345       112.4196 
  80   0.0000       4.131345       112.4196 
  81   0.0000       4.131345       112.4196 
  82   0.0000       4.269296       116.1734 
  83   0.0000       4.269296       116.1734 
  84   0.0000       4.269296       116.1734 
  85   0.0000       4.374633       119.0398 
  86   0.0000       4.374633       119.0398 
  87   0.0000       4.374633       119.0398 
  88   0.0000       4.713245       128.2539 
  89   0.0000       4.713245       128.2539 
  90   0.0000       4.713245       128.2539 
  91   0.0000       5.196189       141.3955 
  92   0.0000       5.277867       143.6181 
  93   0.0000       5.288126       143.8972 
  94   0.0000       5.288126       143.8972 
  95   0.0000       5.288126       143.8972 
  96   0.0000       5.443203       148.1171 
  97   0.0000       5.443203       148.1171 
  98   0.0000       5.494617       149.5161 
  99   0.0000       5.494617       149.5161 
 100   0.0000       5.494617       149.5161 
 101   0.0000       5.761477       156.7778 
 102   0.0000       5.761477       156.7778 
 103   0.0000       5.761477       156.7778 
 104   0.0000      24.219294       659.0405 

                    ********************************
                    * MULLIKEN POPULATION ANALYSIS *
                    ********************************

-----------------------
MULLIKEN ATOMIC CHARGES
-----------------------
   0 C :   -0.349252
   1 H :    0.087316
   2 H :    0.087314
   3 H :    0.087315
   4 H :    0.087308
Sum of atomic charges:    0.0000000

--------------------------------
MULLIKEN REDUCED ORBITAL CHARGES
--------------------------------
  0 C s       :     3.070523  s :     3.070523
      pz      :     1.073361  p :     3.220082
      px      :     1.073361
      py      :     1.073361
      dz2     :    -0.000000  d :     0.056798
      dxz     :     0.018933
      dyz     :     0.018933
      dx2y2   :     0.000000
      dxy     :     0.018933
      f0      :     0.000209  f :     0.001850
      f+1     :     0.000078
      f-1     :     0.000078
      f+2     :     0.000000
      f-2     :     0.001222
      f+3     :     0.000131
      f-3     :     0.000131
  1 H s       :     0.878376  s :     0.878376
      pz      :     0.010864  p :     0.032592
      px      :     0.010864
      py      :     0.010864
      dz2     :     0.000396  d :     0.001716
      dxz     :     0.000308
      dyz     :     0.000308
      dx2y2   :     0.000396
      dxy     :     0.000308
  2 H s       :     0.878379  s :     0.878379
      pz      :     0.010864  p :     0.032592
      px      :     0.010864
      py      :     0.010864
      dz2     :     0.000396  d :     0.001716
      dxz     :     0.000308
      dyz     :     0.000308
      dx2y2   :     0.000396
      dxy     :     0.000308
  3 H s       :     0.878377  s :     0.878377
      pz      :     0.010864  p :     0.032592
      px      :     0.010864
      py      :     0.010864
      dz2     :     0.000396  d :     0.001716
      dxz     :     0.000308
      dyz     :     0.000308
      dx2y2   :     0.000396
      dxy     :     0.000308
  4 H s       :     0.878383  s :     0.878383
      pz      :     0.010864  p :     0.032593
      px      :     0.010864
      py      :     0.010864
      dz2     :     0.000396  d :     0.001716
      dxz     :     0.000308
      dyz     :     0.000308
      dx2y2   :     0.000396
      dxy     :     0.000308


                     *******************************
                     * LOEWDIN POPULATION ANALYSIS *
                     *******************************

----------------------
LOEWDIN ATOMIC CHARGES
----------------------
   0 C :    0.250429
   1 H :   -0.062607
   2 H :   -0.062607
   3 H :   -0.062607
   4 H :   -0.062607

-------------------------------
LOEWDIN REDUCED ORBITAL CHARGES
-------------------------------
  0 C s       :     2.676359  s :     2.676359
      pz      :     0.941050  p :     2.823149
      px      :     0.941050
      py      :     0.941050
      dz2     :     0.000000  d :     0.230391
      dxz     :     0.076797
      dyz     :     0.076797
      dx2y2   :     0.000000
      dxy     :     0.076797
      f0      :     0.004447  f :     0.019672
      f+1     :     0.001668
      f-1     :     0.001668
      f+2     :     0.000000
      f-2     :     0.006331
      f+3     :     0.002779
      f-3     :     0.002779
  1 H s       :     0.731385  s :     0.731385
      pz      :     0.101013  p :     0.303039
      px      :     0.101013
      py      :     0.101013
      dz2     :     0.005731  d :     0.028184
      dxz     :     0.005574
      dyz     :     0.005574
      dx2y2   :     0.005731
      dxy     :     0.005574
  2 H s       :     0.731385  s :     0.731385
      pz      :     0.101013  p :     0.303039
      px      :     0.101013
      py      :     0.101013
      dz2     :     0.005731  d :     0.028184
      dxz     :     0.005574
      dyz     :     0.005574
      dx2y2   :     0.005731
      dxy     :     0.005574
  3 H s       :     0.731385  s :     0.731385
      pz      :     0.101013  p :     0.303039
      px      :     0.101013
      py      :     0.101013
      dz2     :     0.005731  d :     0.028184
      dxz     :     0.005574
      dyz     :     0.005574
      dx2y2   :     0.005731
      dxy     :     0.005574
  4 H s       :     0.731385  s :     0.731385
      pz      :     0.101013  p :     0.303039
      px      :     0.101013
      py      :     0.101013
      dz2     :     0.005731  d :     0.028184
      dxz     :     0.005574
      dyz     :     0.005574
      dx2y2   :     0.005731
      dxy     :     0.005574


                      *****************************
                      * MAYER POPULATION ANALYSIS *
                      *****************************

  NA   - Mulliken gross atomic population
  ZA   - Total nuclear charge
  QA   - Mulliken gross atomic charge
  VA   - Mayer's total valence
  BVA  - Mayer's bonded valence
  FA   - Mayer's free valence

  ATOM       NA         ZA         QA         VA         BVA        FA
  0 C      6.3493     6.0000    -0.3493     3.9574     3.9574     0.0000
  1 H      0.9127     1.0000     0.0873     1.0197     1.0197     0.0000
  2 H      0.9127     1.0000     0.0873     1.0197     1.0197     0.0000
  3 H      0.9127     1.0000     0.0873     1.0197     1.0197    -0.0000
  4 H      0.9127     1.0000     0.0873     1.0197     1.0197     0.0000

  Mayer bond orders larger than 0.100000
B(  0-C ,  1-H ) :   0.9893 B(  0-C ,  2-H ) :   0.9893 B(  0-C ,  3-H ) :   0.9893 
B(  0-C ,  4-H ) :   0.9893 

-------
TIMINGS
-------

Total SCF time: 0 days 0 hours 0 min 1 sec 

Total time                  ....       1.372 sec
Sum of individual times     ....       1.280 sec  ( 93.3%)

Fock matrix formation       ....       1.055 sec  ( 76.8%)
  XC integration            ....       0.146 sec  ( 13.8% of F)
    Basis function eval.    ....       0.027 sec  ( 18.4% of XC)
    Density eval.           ....       0.016 sec  ( 11.0% of XC)
    XC-Functional eval.     ....       0.007 sec  (  5.0% of XC)
    XC-Potential eval.      ....       0.034 sec  ( 23.4% of XC)
Diagonalization             ....       0.014 sec  (  1.0%)
Density matrix formation    ....       0.003 sec  (  0.2%)
Population analysis         ....       0.003 sec  (  0.2%)
Initial guess               ....       0.085 sec  (  6.2%)
Orbital Transformation      ....       0.000 sec  (  0.0%)
Orbital Orthonormalization  ....       0.000 sec  (  0.0%)
DIIS solution               ....       0.006 sec  (  0.5%)
SOSCF solution              ....       0.002 sec  (  0.2%)
Grid generation             ....       0.112 sec  (  8.1%)


           ************************************************************
           *        Program running with 24 parallel MPI-processes    *
           *              working on a common directory               *
           ************************************************************

------------------------------------------------------------------------------
                                ORCA  MP2 
------------------------------------------------------------------------------

Freezing NCore=2 chemical core electrons

-------------
RI-MP2 ENERGY
-------------
Dimension of the basis                    ...  105
Memory devoted to MP2                     ... 5000 MB   
Data format for buffers                   ... DOUBLE
Compression type for matrix containers    ... UNCOMPRESSED
Overall scaling of the MP2 energy         ...   2.700e-01
Calculating two index integrals           ... done (    0.001 sec)
Cholesky decomposition of V**-1           ... done (    0.010 sec)

-----------------
RI-TRANSFORMATION (AUX index driven)
-----------------

Dimension of the orbital-basis         ... 105
Dimension of the aux-basis             ... 248
Transformation of internal/external MOs...    1-   4 to    5- 104
Number Format for Storage              ... Double (8 Byte)
Integral mode                          ... Direct

First Phase: integral generation and transformation of MO indices
  Aux angular momentum 0               ... done (    0.001 sec)
  Aux angular momentum 1               ... done (    0.001 sec)
  Aux angular momentum 2               ... done (    0.001 sec)
  Aux angular momentum 3               ... done (    0.001 sec)
  Aux angular momentum 4               ... done (    0.001 sec)
Closing buffer VIA ( 0.00 GB; CompressionRatio= 1.00)
  Phase 1 completed in     0.081 sec
Second Phase: sorting and transformation of aux index

IA-Transformation
Memory available                       ... 4999 MB 
Max. # MO pairs treated in a batch     ... 1    
# of internal orbitals                 ... 4
# batches for internal orbitals        ... 1
Closing buffer IAV ( 0.00 GB; CompressionRatio= 1.00)
(ia|v) transformation done in     0.002 sec

  Phase 2 completed in     0.004 sec
RI-Integral transformation completed in     0.086 sec
Opening buffers                              ... done

Starting loop over batches of integrals:

Operator 0  - window                       ... (  1-  4)x(  5-104)
Operator 0  - Memory available             ...  5000 MB
Operator 0  - Memory needed per MO         ...   0.2 MB
Operator 0  - Number of orbitals per batch ... 1
Operator 0  - Number of batches            ... 1

OPERATOR  0   PASS   0:  MOs     1 ...    1 +    2 ...    2 +    3 ...    3 +    4 ...    4
  Reading integrals       ... ok
Time spent in pair loops =     0.001 sec
Deleting buffer (Ka|jb)[aa] ...done

-----------------------------------------------
 RI-MP2 CORRELATION ENERGY:     -0.064231714 Eh
-----------------------------------------------


-------
TIMINGS
-------

Total time                :    0.115 sec
Integral trafo            :    0.101 sec ( 87.9%)
I/O of integrals          :    0.000 sec (  0.1%)
K(i,j) Operators          :    0.000 sec (  0.1%)
T(i,j) pair energies      :    0.000 sec (  0.1%)
V-calculation             :    0.001 sec (  1.2%)
V**(-1/2)                 :    0.010 sec (  8.6%)
Gamma(ia|P)               :    0.000 sec (  0.0%)
Gamma-Trafo               :    0.000 sec (  0.0%)
D(virtual)                :    0.000 sec (  0.0%)
D(internal)               :    0.000 sec (  0.0%)
W(virtual)                :    0.000 sec (  0.0%)
W(internal)               :    0.000 sec (  0.0%)
L(virtual)                :    0.000 sec (  0.0%)
L(internal)               :    0.000 sec (  0.0%)
G(D)                      :    0.000 sec (  0.0%)
G(Z)                      :    0.000 sec (  0.0%)
Z-Vector Solution         :    0.000 sec (  0.0%)
Z-Vector Solution         :    0.000 sec (  0.0%)
3-Index Derivative 
+ Separable RIJ part      :    0.000 sec (  0.0%)
2-Index Derivative 
+ Separable RIJ part      :    0.000 sec (  0.0%)
Separable Gradient (X)    :    0.000 sec (  0.0%)


---------------------------------------
MP2 TOTAL ENERGY:      -40.487222237 Eh
---------------------------------------


-------------------------------------------------------------------------------
                          DFT DISPERSION CORRECTION                            
                                                                               
                              DFTD3 V3.1  Rev 1                                
                          USING Becke-Johnson damping                          
-------------------------------------------------------------------------------
The B2PLYP functional is recognized
Active option DFTDOPT                   ...         4   

molecular C6(AA) [au] = 127.682272 


            DFT-D V3
 parameters
 s6 scaling factor         :     0.6400 
 a1 scaling factor         :     0.3065 
 s8 scaling factor         :     0.9147 
 a2 scaling factor         :     5.0570 
 ad hoc parameters k1-k3   :    16.0000     1.3333    -4.0000 

 Edisp/kcal,au: -0.496353261504  -0.000790989187 
 E6   /kcal   :  -0.315113938 
 E8   /kcal   :  -0.181239323 
 % E8         :  36.514179977 

-------------------------   ----------------
Dispersion correction           -0.000790989
-------------------------   ----------------


-------------------------   --------------------
FINAL SINGLE POINT ENERGY       -40.488013226195
-------------------------   --------------------


                            ***************************************
                            *     ORCA property calculations      *
                            ***************************************


  WARNING: The energy has been calculated at the MP2 level but the densities
           used in the property calculations are still SCF densities
           MP2 response densities have not been calculated 
           use %mp2 Density relaxed end
           or  %mp2 Density unrelaxed end

                                    ---------------------
                                    Active property flags
                                    ---------------------
   (+) Dipole Moment


------------------------------------------------------------------------------
                       ORCA ELECTRIC PROPERTIES CALCULATION
------------------------------------------------------------------------------

Dipole Moment Calculation                       ... on
Quadrupole Moment Calculation                   ... off
Polarizability Calculation                      ... off
GBWName                                         ... 170_c.gbw
Electron density file                           ... 170_c.scfp
The origin for moment calculation is the CENTER OF MASS  = ( 0.000000,  0.000000  0.000000)

-------------
DIPOLE MOMENT
-------------
                                X             Y             Z
Electronic contribution:      0.00000       0.00000       0.00000
Nuclear contribution   :      0.00000       0.00000       0.00000
                        -----------------------------------------
Total Dipole Moment    :      0.00000       0.00000       0.00000
                        -----------------------------------------
Magnitude (a.u.)       :      0.00000
Magnitude (Debye)      :      0.00000



--------------------
Rotational spectrum 
--------------------
 
Rotational constants in cm-1:     5.216064     5.216064     5.216064 
Rotational constants in MHz : 156373.665933 156373.665933 156373.665933 

 Dipole components along the rotational axes: 
x,y,z [a.u.] :     0.000000     0.000000     0.000000 
x,y,z [Debye]:     0.000000     0.000000     0.000000 

 

Timings for individual modules:

Sum of individual times         ...        2.803 sec (=   0.047 min)
GTO integral calculation        ...        0.525 sec (=   0.009 min)  18.7 %
SCF iterations                  ...        1.720 sec (=   0.029 min)  61.4 %
MP2 module                      ...        0.558 sec (=   0.009 min)  19.9 %
                             ****ORCA TERMINATED NORMALLY****
TOTAL RUN TIME: 0 days 0 hours 0 minutes 3 seconds 282 msec
