
                                 *****************
                                 * O   R   C   A *
                                 *****************

           --- An Ab Initio, DFT and Semiempirical electronic structure package ---

                  #######################################################
                  #                        -***-                        #
                  #          Department of theory and spectroscopy      #
                  #               Directorship: Frank Neese             #
                  #        Max Planck Institute fuer Kohlenforschung    #
                  #                Kaiser Wilhelm Platz 1               #
                  #                 D-45470 Muelheim/Ruhr               #
                  #                      Germany                        #
                  #                                                     #
                  #                  All rights reserved                #
                  #                        -***-                        #
                  #######################################################


                         Program Version 4.2.0 -  RELEASE  -


 With contributions from (in alphabetic order):
   Daniel Aravena         : Magnetic Suceptibility
   Michael Atanasov       : Ab Initio Ligand Field Theory (pilot matlab implementation)
   Alexander A. Auer      : GIAO ZORA, VPT2
   Ute Becker             : Parallelization
   Giovanni Bistoni       : ED, misc. LED, open-shell LED, HFLED
   Martin Brehm           : Molecular dynamics
   Dmytro Bykov           : SCF Hessian
   Vijay G. Chilkuri      : MRCI spin determinant printing, contributions to CSF-ICE
   Dipayan Datta          : RHF DLPNO-CCSD density
   Achintya Kumar Dutta   : EOM-CC, STEOM-CC
   Dmitry Ganyushin       : Spin-Orbit,Spin-Spin,Magnetic field MRCI
   Miquel Garcia          : C-PCM Hessian, Gaussian charge scheme
   Yang Guo               : DLPNO-NEVPT2, CIM, IAO-localization
   Andreas Hansen         : Spin unrestricted coupled pair/coupled cluster methods
   Benjamin Helmich-Paris : CASSCF linear response (MC-RPA)
   Lee Huntington         : MR-EOM, pCC
   Robert Izsak           : Overlap fitted RIJCOSX, COSX-SCS-MP3, EOM
   Christian Kollmar      : KDIIS, OOCD, Brueckner-CCSD(T), CCSD density
   Simone Kossmann        : Meta GGA functionals, TD-DFT gradient, OOMP2, MP2 Hessian
   Martin Krupicka        : AUTO-CI
   Lucas Lang             : DCDCAS
   Dagmar Lenk            : GEPOL surface, SMD
   Dimitrios Liakos       : Extrapolation schemes; Compound Job, initial MDCI parallelization
   Dimitrios Manganas     : Further ROCIS development; embedding schemes
   Dimitrios Pantazis     : SARC Basis sets
   Taras Petrenko         : DFT Hessian,TD-DFT gradient, ASA, ECA, R-Raman, ABS, FL, XAS/XES, NRVS
   Peter Pinski           : DLPNO-MP2, DLPNO-MP2 Gradient
   Christoph Reimann      : Effective Core Potentials
   Marius Retegan         : Local ZFS, SOC
   Christoph Riplinger    : Optimizer, TS searches, QM/MM, DLPNO-CCSD(T), (RO)-DLPNO pert. Triples
   Tobias Risthaus        : Range-separated hybrids, TD-DFT gradient, RPA, STAB
   Michael Roemelt        : Original ROCIS implementation
   Masaaki Saitow         : Open-shell DLPNO-CCSD energy and density
   Barbara Sandhoefer     : DKH picture change effects
   Avijit Sen             : IP-ROCIS
   Kantharuban Sivalingam : CASSCF convergence, NEVPT2, FIC-MRCI
   Bernardo de Souza      : ESD, SOC TD-DFT
   Georgi Stoychev        : AutoAux, RI-MP2 NMR
   Willem Van den Heuvel  : Paramagnetic NMR
   Boris Wezisla          : Elementary symmetry handling
   Frank Wennmohs         : Technical directorship


 We gratefully acknowledge several colleagues who have allowed us to
 interface, adapt or use parts of their codes:
   Stefan Grimme, W. Hujo, H. Kruse,             : VdW corrections, initial TS optimization,
                  C. Bannwarth                     DFT functionals, gCP, sTDA/sTD-DF
   Ed Valeev, F. Pavosevic, A. Kumar             : LibInt (2-el integral package), F12 methods
   Garnet Chan, S. Sharma, J. Yang, R. Olivares  : DMRG
   Ulf Ekstrom                                   : XCFun DFT Library
   Mihaly Kallay                                 : mrcc  (arbitrary order and MRCC methods)
   Andreas Klamt, Michael Diedenhofen            : otool_cosmo (COSMO solvation model)
   Jiri Pittner, Ondrej Demel                    : Mk-CCSD
   Frank Weinhold                                : gennbo (NPA and NBO analysis)
   Christopher J. Cramer and Donald G. Truhlar   : smd solvation model
   Lars Goerigk                                  : TD-DFT with DH, B97 family of functionals
   V. Asgeirsson, H. Jonsson                     : NEB implementation
   FAccTs GmbH                                   : IRC, NEB, NEB-TS, Multilevel, MM, QM/MM, CI optimization
   S Lehtola, MJT Oliveira, MAL Marques          : LibXC Library


 Your calculation uses the libint2 library for the computation of 2-el integrals
 For citations please refer to: http://libint.valeyev.net

 Your ORCA version has been built with support for libXC version: 4.2.3
 For citations please refer to: https://tddft.org/programs/libxc/

 This ORCA versions uses:
   CBLAS   interface :  Fast vector & matrix operations
   LAPACKE interface :  Fast linear algebra routines
   SCALAPACK package :  Parallel linear algebra routines


Your calculation utilizes the atom-pairwise dispersion correction
with the Becke-Johnson damping scheme (D3BJ)
Cite in your paper:
S.Grimme, S.Ehrlich, L.Goerigk, J Comput Chem, (2011), 32, 1456–1465 
S.Grimme, J.Antony, S.Ehrlich and H.Krieg, J.Chem.Phys., 132, (2010), 154104 
   

----- Orbital basis set information -----
Your calculation utilizes the basis: def2-TZVPPD
   F. Weigend and R. Ahlrichs, Phys. Chem. Chem. Phys. 7, 3297 (2005).
   D. Rappoport and F. Furche, J. Chem. Phys. 133 134105 (2010).

----- AuxC basis set information -----
Your calculation utilizes the auxiliary basis: def2-TZVPPD/C
   A. Hellweg, C. Hattig, S. Hofener and W. Klopper, Theor. Chem. Acc. 117, 587 (2007).

----- AuxJK basis set information -----
Your calculation utilizes the auxiliary basis: def2/JK
   H-Ba, Hf-Rn: F. Weigend, J. Comput. Chem. 29, 167 (2008).

================================================================================
                                        WARNINGS
                       Please study these warnings very carefully!
================================================================================


WARNING: your system is open-shell and RHF/RKS was chosen
  ===> : WILL SWITCH to UHF/UKS


WARNING: No MP2 level density has been requested!
         To caclulate MP2 level properties use
         %mp2 Density relaxed end
         or
         %mp2 Density unrelaxed end
         Otherwise for double-hybrid DFT only the energy is correct!

WARNING: The frozen-core approximation is turned on by default for 
         the MP2 part of double-hybrid DFT.

INFO   : the flag for use of LIBINT has been found!

================================================================================
                                       INPUT FILE
================================================================================
NAME = 172_o.in
|  1> #
|  2> # 172_o ri-B2PLYP-D3BJ/Def2-TZVPPD
|  3> #
|  4> ! rijk ri-b2plyp d3bj def2-tzvppd def2/jk def2-tzvppd/c grid4 nofinalgrid
|  5> 
|  6> *xyz 0 3
|  7> O          0.00000        0.00000        0.61122
|  8> O          0.00000        0.00000       -0.61122
|  9> *
| 10> 
| 11> %maxcore 5000
| 12> 
| 13> %pal
| 14> nprocs = 24
| 15> end
| 16> 
| 17> 
| 18>                          ****END OF INPUT****
================================================================================

                       ****************************
                       * Single Point Calculation *
                       ****************************

---------------------------------
CARTESIAN COORDINATES (ANGSTROEM)
---------------------------------
  O      0.000000    0.000000    0.611220
  O      0.000000    0.000000   -0.611220

----------------------------
CARTESIAN COORDINATES (A.U.)
----------------------------
  NO LB      ZA    FRAG     MASS         X           Y           Z
   0 O     8.0000    0    15.999    0.000000    0.000000    1.155038
   1 O     8.0000    0    15.999    0.000000    0.000000   -1.155038

--------------------------------
INTERNAL COORDINATES (ANGSTROEM)
--------------------------------
 O      0   0   0     0.000000000000     0.00000000     0.00000000
 O      1   0   0     1.222440000000     0.00000000     0.00000000

---------------------------
INTERNAL COORDINATES (A.U.)
---------------------------
 O      0   0   0     0.000000000000     0.00000000     0.00000000
 O      1   0   0     2.310076815151     0.00000000     0.00000000

---------------------
BASIS SET INFORMATION
---------------------
There are 1 groups of distinct atoms

 Group   1 Type O   : 12s7p3d1f contracted to 6s4p3d1f pattern {621111/4111/111/1}

Atom   0O    basis set group =>   1
Atom   1O    basis set group =>   1
---------------------------------
AUXILIARY/C BASIS SET INFORMATION
---------------------------------
There are 1 groups of distinct atoms

 Group   1 Type O   : 9s7p6d4f1g contracted to 9s7p5d4f1g pattern {111111111/1111111/21111/1111/1}

Atom   0O    basis set group =>   1
Atom   1O    basis set group =>   1
----------------------------------
AUXILIARY/JK BASIS SET INFORMATION
----------------------------------
There are 1 groups of distinct atoms

 Group   1 Type O   : 14s10p6d2f1g contracted to 10s8p4d2f1g pattern {5111111111/31111111/3111/11/1}

Atom   0O    basis set group =>   1
Atom   1O    basis set group =>   1


           ************************************************************
           *        Program running with 24 parallel MPI-processes    *
           *              working on a common directory               *
           ************************************************************
------------------------------------------------------------------------------
                           ORCA GTO INTEGRAL CALCULATION
                           -- RI-GTO INTEGRALS CHOSEN --
------------------------------------------------------------------------------

                         BASIS SET STATISTICS AND STARTUP INFO

Gaussian basis set:
 # of primitive gaussian shells          ...   46
 # of primitive gaussian functions       ...  110
 # of contracted shells                  ...   28
 # of contracted basis functions         ...   80
 Highest angular momentum                ...    3
 Maximum contraction depth               ...    6
Auxiliary gaussian basis set:
 # of primitive gaussian shells          ...   66
 # of primitive gaussian functions       ...  194
 # of contracted shells                  ...   50
 # of contracted aux-basis functions     ...  154
 Highest angular momentum                ...    4
 Maximum contraction depth               ...    5
Ratio of auxiliary to basis functions    ...  1.93
Integral package used                  ... LIBINT
 One Electron integrals                  ... done
 Ordering auxiliary basis shells         ... done
 Integral threshhold             Thresh  ...  1.000e-10
 Primitive cut-off               TCut    ...  1.000e-11
 Pre-screening matrix                    ... done
 Shell pair data                         ... 
 Ordering of the shell pairs             ... done (   0.000 sec) 405 of 406 pairs
 Determination of significant pairs      ... done (   0.000 sec)
 Creation of shell pair data             ... done (   0.000 sec)
 Storage of shell pair data              ... done (   0.036 sec)
 Shell pair data done in (   0.036 sec)
 Computing two index integrals           ... done
 Cholesky decomposition of the V-matrix  ... done


Timings:
 Total evaluation time                   ...   0.176 sec (  0.003 min)
 One electron matrix time                ...   0.024 sec (  0.000 min) = 13.5%
 Schwartz matrix evaluation time         ...   0.092 sec (  0.002 min) = 52.1%
 Two index repulsion integral time       ...   0.001 sec (  0.000 min) =  0.4%
 Cholesky decomposition of V             ...   0.001 sec (  0.000 min) =  0.5%
 Three index repulsion integral time     ...   0.000 sec (  0.000 min) =  0.0%



           ************************************************************
           *        Program running with 24 parallel MPI-processes    *
           *              working on a common directory               *
           ************************************************************
-------------------------------------------------------------------------------
                                 ORCA SCF
-------------------------------------------------------------------------------

------------
SCF SETTINGS
------------
Hamiltonian:
 Density Functional     Method          .... DFT(GTOs)
 Exchange Functional    Exchange        .... B88
   X-Alpha parameter    XAlpha          ....  0.666667
   Becke's b parameter  XBeta           ....  0.004200
 Correlation Functional Correlation     .... LYP
 LDA part of GGA corr.  LDAOpt          .... VWN-3
 Gradients option       PostSCFGGA      .... off
 Hybrid DFT is turned on
   Fraction HF Exchange ScalHFX         ....  0.530000
   Scaling of DF-GGA-X  ScalDFX         ....  0.470000
   Scaling of DF-GGA-C  ScalDFC         ....  0.730000
   Scaling of DF-LDA-C  ScalLDAC        ....  0.730000
   Perturbative correction              ....  0.270000
   Density functional embedding theory  .... OFF
 RI-approximation to the Coulomb term is turned on
   Number of auxiliary basis functions  .... 154
   RI-JK (J+K treated both via RI)      .... on


General Settings:
 Integral files         IntName         .... 172_o
 Hartree-Fock type      HFTyp           .... UHF
 Total Charge           Charge          ....    0
 Multiplicity           Mult            ....    3
 Number of Electrons    NEL             ....   16
 Basis Dimension        Dim             ....   80
 Nuclear Repulsion      ENuc            ....     27.7047064324 Eh

Convergence Acceleration:
 DIIS                   CNVDIIS         .... on
   Start iteration      DIISMaxIt       ....    12
   Startup error        DIISStart       ....  0.200000
   # of expansion vecs  DIISMaxEq       ....     5
   Bias factor          DIISBfac        ....   1.050
   Max. coefficient     DIISMaxC        ....  10.000
 Newton-Raphson         CNVNR           .... off
 SOSCF                  CNVSOSCF        .... off
 Level Shifting         CNVShift        .... on
   Level shift para.    LevelShift      ....    0.2500
   Turn off err/grad.   ShiftErr        ....    0.0010
 Zerner damping         CNVZerner       .... off
 Static damping         CNVDamp         .... on
   Fraction old density DampFac         ....    0.7000
   Max. Damping (<1)    DampMax         ....    0.9800
   Min. Damping (>=0)   DampMin         ....    0.0000
   Turn off err/grad.   DampErr         ....    0.1000
 Fernandez-Rico         CNVRico         .... off

SCF Procedure:
 Maximum # iterations   MaxIter         ....   125
 SCF integral mode      SCFMode         .... Direct
   Integral package                     .... LIBINT
 Reset frequency        DirectResetFreq ....    20
 Integral Threshold     Thresh          ....  1.000e-10 Eh
 Primitive CutOff       TCut            ....  1.000e-11 Eh

Convergence Tolerance:
 Convergence Check Mode ConvCheckMode   .... Total+1el-Energy
 Convergence forced     ConvForced      .... 0
 Energy Change          TolE            ....  1.000e-06 Eh
 1-El. energy change                    ....  1.000e-03 Eh
 DIIS Error             TolErr          ....  1.000e-06


Diagonalization of the overlap matrix:
Smallest eigenvalue                        ... 2.637e-04
Time for diagonalization                   ...    0.003 sec
Threshold for overlap eigenvalues          ... 1.000e-08
Number of eigenvalues below threshold      ... 0
Time for construction of square roots      ...    0.001 sec
Total time needed                          ...    0.004 sec

-------------------
DFT GRID GENERATION
-------------------

General Integration Accuracy     IntAcc      ...  4.670
Radial Grid Type                 RadialGrid  ... Gauss-Chebyshev
Angular Grid (max. acc.)         AngularGrid ... Lebedev-302
Angular grid pruning method      GridPruning ... 3 (G Style)
Weight generation scheme         WeightScheme... Becke
Basis function cutoff            BFCut       ...    1.0000e-10
Integration weight cutoff        WCut        ...    1.0000e-14
Grids for H and He will be reduced by one unit

# of grid points (after initial pruning)     ...  12424 (   0.0 sec)
# of grid points (after weights+screening)   ...  12396 (   0.0 sec)
nearest neighbour list constructed           ...    0.0 sec
Grid point re-assignment to atoms done       ...    0.0 sec
Grid point division into batches done        ...    0.1 sec
Reduced shell lists constructed in    0.1 sec

Total number of grid points                  ...    12396
Total number of batches                      ...      194
Average number of points per batch           ...       63
Average number of grid points per atom       ...     6198
Average number of shells per batch           ...     8.20 (29.29%)
Average number of basis functions per batch  ...    22.00 (27.50%)
Average number of large shells per batch     ...     4.90 (59.76%)
Average number of large basis fcns per batch ...    13.70 (62.27%)
Average number of aux-shells per batch       ...     8.20 (16.40%)
Average number of aux functions per batch    ...    22.00 (14.29%)
Maximum spatial batch extension              ...  19.94, 19.94, 11.34 au
Average spatial batch extension              ...   0.68,  0.68,  0.45 au

Time for grid setup =    0.109 sec

------------------------------
INITIAL GUESS: MODEL POTENTIAL
------------------------------
Loading Hartree-Fock densities                     ... done
Calculating cut-offs                               ... done
Setting up the integral package                    ... done
Initializing the effective Hamiltonian             ... done
Starting the Coulomb interaction                   ... done (   0.0 sec)
Reading the grid                                   ... done
Mapping shells                                     ... done
Starting the XC term evaluation                    ... done (   0.0 sec)
  promolecular density results
     # of electrons  =     15.999997739
     EX              =    -16.301862191
     EC              =     -0.192079626
     EX+EC           =    -16.493941817
Transforming the Hamiltonian                       ... done (   0.0 sec)
Diagonalizing the Hamiltonian                      ... done (   0.0 sec)
Back transforming the eigenvectors                 ... done (   0.0 sec)
Now organizing SCF variables                       ... done
                      ------------------
                      INITIAL GUESS DONE (   0.2 sec)
                      ------------------
--------------
SCF ITERATIONS
--------------
ITER       Energy         Delta-E        Max-DP      RMS-DP      [F,P]     Damp
  0   -150.1302372544   0.000000000000 0.00716256  0.00029621  0.0760747 0.7000
  1   -150.1373748019  -0.007137547505 0.00631384  0.00027651  0.0575425 0.7000
                               ***Turning on DIIS***
  2   -150.1442184979  -0.006843695982 0.01407186  0.00071718  0.0350661 0.0000
  3   -150.1535878728  -0.009369374847 0.00404228  0.00014864  0.0159933 0.0000
  4   -150.1541827011  -0.000594828309 0.00113307  0.00006430  0.0029878 0.0000
  5   -150.1542533803  -0.000070679260 0.00061016  0.00003768  0.0004884 0.0000
  6   -150.1542663252  -0.000012944891 0.00013297  0.00000764  0.0001756 0.0000
                 **** Energy Check signals convergence ****

               *****************************************************
               *                     SUCCESS                       *
               *           SCF CONVERGED AFTER   7 CYCLES          *
               *****************************************************


----------------
TOTAL SCF ENERGY
----------------

Total Energy       :         -150.15426702 Eh           -4085.90533 eV

Components:
Nuclear Repulsion  :           27.70470643 Eh             753.88339 eV
Electronic Energy  :         -177.85897346 Eh           -4839.78872 eV
One Electron Energy:         -261.11524654 Eh           -7105.30709 eV
Two Electron Energy:           83.25627309 Eh            2265.51837 eV

Virial components:
Potential Energy   :         -299.84105594 Eh           -8159.08993 eV
Kinetic Energy     :          149.68678891 Eh            4073.18460 eV
Virial Ratio       :            2.00312304


DFT components:
N(Alpha)           :        9.000000385071 electrons
N(Beta)            :        7.000000706843 electrons
N(Total)           :       16.000001091914 electrons
E(X)               :       -7.729026441388 Eh       
E(C)               :       -0.416199518152 Eh       
E(XC)              :       -8.145225959540 Eh       
DFET-embed. en.    :        0.000000000000 Eh       

---------------
SCF CONVERGENCE
---------------

  Last Energy change         ...   -6.9770e-07  Tolerance :   1.0000e-06
  Last MAX-Density change    ...    3.4310e-05  Tolerance :   1.0000e-05
  Last RMS-Density change    ...    1.4995e-06  Tolerance :   1.0000e-06
  Last DIIS Error            ...    4.6517e-05  Tolerance :   1.0000e-06

             **** THE GBW FILE WAS UPDATED (172_o.gbw) ****
             **** DENSITY FILE WAS UPDATED (172_o.scfp) ****
             **** ENERGY FILE WAS UPDATED (172_o.en.tmp) ****
----------------------
UHF SPIN CONTAMINATION
----------------------

Warning: in a DFT calculation there is little theoretical justification to 
         calculate <S**2> as in Hartree-Fock theory. We will do it anyways
         but you should keep in mind that the values have only limited relevance

Expectation value of <S**2>     :     2.022098
Ideal value S*(S+1) for S=1.0   :     2.000000
Deviation                       :     0.022098

             **** THE GBW FILE WAS UPDATED (172_o.gbw) ****
             **** DENSITY FILE WAS UPDATED (172_o.scfp) ****
----------------
ORBITAL ENERGIES
----------------
                 SPIN UP ORBITALS
  NO   OCC          E(Eh)            E(eV) 
   0   1.0000     -19.908369      -541.7343 
   1   1.0000     -19.908022      -541.7248 
   2   1.0000      -1.468301       -39.9545 
   3   1.0000      -1.000326       -27.2203 
   4   1.0000      -0.680449       -18.5159 
   5   1.0000      -0.680449       -18.5159 
   6   1.0000      -0.643610       -17.5135 
   7   1.0000      -0.422785       -11.5046 
   8   1.0000      -0.422785       -11.5046 
   9   0.0000       0.060004         1.6328 
  10   0.0000       0.078653         2.1403 
  11   0.0000       0.092894         2.5278 
  12   0.0000       0.092894         2.5278 
  13   0.0000       0.138862         3.7786 
  14   0.0000       0.138911         3.7800 
  15   0.0000       0.138911         3.7800 
  16   0.0000       0.224896         6.1197 
  17   0.0000       0.335418         9.1272 
  18   0.0000       0.352644         9.5959 
  19   0.0000       0.352645         9.5960 
  20   0.0000       0.446328        12.1452 
  21   0.0000       0.495004        13.4697 
  22   0.0000       0.495004        13.4697 
  23   0.0000       0.495839        13.4925 
  24   0.0000       0.506245        13.7756 
  25   0.0000       0.506245        13.7756 
  26   0.0000       0.522197        14.2097 
  27   0.0000       0.522199        14.2098 
  28   0.0000       0.583684        15.8829 
  29   0.0000       0.583684        15.8829 
  30   0.0000       0.670279        18.2392 
  31   0.0000       0.836375        22.7589 
  32   0.0000       0.939884        25.5756 
  33   0.0000       0.939884        25.5756 
  34   0.0000       0.955463        25.9995 
  35   0.0000       1.280707        34.8498 
  36   0.0000       1.555571        42.3292 
  37   0.0000       1.555571        42.3292 
  38   0.0000       1.561438        42.4889 
  39   0.0000       1.561438        42.4889 
  40   0.0000       1.877365        51.0857 
  41   0.0000       1.877366        51.0857 
  42   0.0000       2.022310        55.0298 
  43   0.0000       2.229832        60.6768 
  44   0.0000       2.229832        60.6768 
  45   0.0000       2.497877        67.9707 
  46   0.0000       2.642371        71.9026 
  47   0.0000       2.642371        71.9026 
  48   0.0000       2.928291        79.6828 
  49   0.0000       3.137480        85.3752 
  50   0.0000       3.137480        85.3752 
  51   0.0000       3.257846        88.6505 
  52   0.0000       3.339351        90.8684 
  53   0.0000       4.409750       119.9954 
  54   0.0000       4.740543       128.9967 
  55   0.0000       4.740544       128.9968 
  56   0.0000       4.846447       131.8785 
  57   0.0000       4.846447       131.8785 
  58   0.0000       5.064263       137.8056 
  59   0.0000       5.064263       137.8056 
  60   0.0000       5.140511       139.8804 
  61   0.0000       5.291124       143.9788 
  62   0.0000       5.291124       143.9788 
  63   0.0000       5.830908       158.6671 
  64   0.0000       5.830909       158.6671 
  65   0.0000       6.357471       172.9956 
  66   0.0000       6.357479       172.9958 
  67   0.0000       6.450486       175.5266 
  68   0.0000       6.450486       175.5266 
  69   0.0000       6.524203       177.5326 
  70   0.0000       6.524211       177.5328 
  71   0.0000       6.662222       181.2883 
  72   0.0000       6.662222       181.2883 
  73   0.0000       6.664817       181.3589 
  74   0.0000       7.356215       200.1728 
  75   0.0000       7.356215       200.1728 
  76   0.0000       7.608560       207.0394 
  77   0.0000       8.831966       240.3300 
  78   0.0000      43.913352      1194.9430 
  79   0.0000      44.575451      1212.9597 

                 SPIN DOWN ORBITALS
  NO   OCC          E(Eh)            E(eV) 
   0   1.0000     -19.868701      -540.6548 
   1   1.0000     -19.868037      -540.6368 
   2   1.0000      -1.383407       -37.6444 
   3   1.0000      -0.863400       -23.4943 
   4   1.0000      -0.596312       -16.2265 
   5   1.0000      -0.512295       -13.9403 
   6   1.0000      -0.512295       -13.9403 
   7   0.0000      -0.040273        -1.0959 
   8   0.0000      -0.040273        -1.0959 
   9   0.0000       0.062895         1.7115 
  10   0.0000       0.082163         2.2358 
  11   0.0000       0.098258         2.6737 
  12   0.0000       0.098258         2.6737 
  13   0.0000       0.137942         3.7536 
  14   0.0000       0.147895         4.0244 
  15   0.0000       0.147895         4.0244 
  16   0.0000       0.245581         6.6826 
  17   0.0000       0.355650         9.6777 
  18   0.0000       0.355650         9.6777 
  19   0.0000       0.365187         9.9372 
  20   0.0000       0.446291        12.1442 
  21   0.0000       0.509932        13.8759 
  22   0.0000       0.511136        13.9087 
  23   0.0000       0.511136        13.9087 
  24   0.0000       0.516982        14.0678 
  25   0.0000       0.516982        14.0678 
  26   0.0000       0.530272        14.4294 
  27   0.0000       0.530273        14.4294 
  28   0.0000       0.618278        16.8242 
  29   0.0000       0.618278        16.8242 
  30   0.0000       0.686459        18.6795 
  31   0.0000       0.848790        23.0967 
  32   0.0000       0.954933        25.9850 
  33   0.0000       0.969387        26.3784 
  34   0.0000       0.969387        26.3784 
  35   0.0000       1.299879        35.3715 
  36   0.0000       1.592663        43.3386 
  37   0.0000       1.592663        43.3386 
  38   0.0000       1.609431        43.7948 
  39   0.0000       1.609432        43.7949 
  40   0.0000       1.950443        53.0743 
  41   0.0000       1.950444        53.0743 
  42   0.0000       2.051861        55.8340 
  43   0.0000       2.275875        61.9297 
  44   0.0000       2.275875        61.9297 
  45   0.0000       2.517177        68.4959 
  46   0.0000       2.726432        74.1900 
  47   0.0000       2.726432        74.1900 
  48   0.0000       2.968155        80.7676 
  49   0.0000       3.211452        87.3880 
  50   0.0000       3.211452        87.3880 
  51   0.0000       3.286274        89.4241 
  52   0.0000       3.380693        91.9933 
  53   0.0000       4.439742       120.8115 
  54   0.0000       4.780614       130.0871 
  55   0.0000       4.780615       130.0871 
  56   0.0000       4.875981       132.6822 
  57   0.0000       4.875981       132.6822 
  58   0.0000       5.131367       139.6316 
  59   0.0000       5.131367       139.6316 
  60   0.0000       5.181059       140.9838 
  61   0.0000       5.362595       145.9236 
  62   0.0000       5.362595       145.9236 
  63   0.0000       5.883091       160.0870 
  64   0.0000       5.883091       160.0870 
  65   0.0000       6.471481       176.0979 
  66   0.0000       6.471489       176.0982 
  67   0.0000       6.513649       177.2454 
  68   0.0000       6.513649       177.2454 
  69   0.0000       6.632746       180.4862 
  70   0.0000       6.632756       180.4865 
  71   0.0000       6.707725       182.5265 
  72   0.0000       6.721487       182.9009 
  73   0.0000       6.721487       182.9009 
  74   0.0000       7.388841       201.0606 
  75   0.0000       7.388841       201.0606 
  76   0.0000       7.638182       207.8455 
  77   0.0000       8.859516       241.0797 
  78   0.0000      43.942120      1195.7259 
  79   0.0000      44.603539      1213.7240 

                    ********************************
                    * MULLIKEN POPULATION ANALYSIS *
                    ********************************

--------------------------------------------
MULLIKEN ATOMIC CHARGES AND SPIN POPULATIONS
--------------------------------------------
   0 O :    0.000000    1.000000
   1 O :   -0.000000    1.000000
Sum of atomic charges         :   -0.0000000
Sum of atomic spin populations:    2.0000000

-----------------------------------------------------
MULLIKEN REDUCED ORBITAL CHARGES AND SPIN POPULATIONS
-----------------------------------------------------
CHARGE
  0 O s       :     3.932881  s :     3.932881
      pz      :     1.052651  p :     4.018495
      px      :     1.482922
      py      :     1.482922
      dz2     :     0.012473  d :     0.043878
      dxz     :     0.015703
      dyz     :     0.015703
      dx2y2   :     0.000000
      dxy     :     0.000000
      f0      :     0.001995  f :     0.004745
      f+1     :     0.001375
      f-1     :     0.001375
      f+2     :     0.000000
      f-2     :     0.000000
      f+3     :     0.000000
      f-3     :     0.000000
  1 O s       :     3.932881  s :     3.932881
      pz      :     1.052651  p :     4.018495
      px      :     1.482922
      py      :     1.482922
      dz2     :     0.012473  d :     0.043878
      dxz     :     0.015703
      dyz     :     0.015703
      dx2y2   :     0.000000
      dxy     :     0.000000
      f0      :     0.001995  f :     0.004745
      f+1     :     0.001375
      f-1     :     0.001375
      f+2     :     0.000000
      f-2     :     0.000000
      f+3     :     0.000000
      f-3     :     0.000000

SPIN
  0 O s       :     0.014021  s :     0.014021
      pz      :    -0.013399  p :     1.005059
      px      :     0.509229
      py      :     0.509229
      dz2     :    -0.000282  d :    -0.018563
      dxz     :    -0.009140
      dyz     :    -0.009140
      dx2y2   :     0.000000
      dxy     :     0.000000
      f0      :    -0.000339  f :    -0.000517
      f+1     :    -0.000089
      f-1     :    -0.000089
      f+2     :     0.000000
      f-2     :     0.000000
      f+3     :     0.000000
      f-3     :     0.000000
  1 O s       :     0.014021  s :     0.014021
      pz      :    -0.013399  p :     1.005059
      px      :     0.509229
      py      :     0.509229
      dz2     :    -0.000282  d :    -0.018563
      dxz     :    -0.009140
      dyz     :    -0.009140
      dx2y2   :     0.000000
      dxy     :     0.000000
      f0      :    -0.000339  f :    -0.000517
      f+1     :    -0.000089
      f-1     :    -0.000089
      f+2     :     0.000000
      f-2     :    -0.000000
      f+3     :     0.000000
      f-3     :     0.000000


                     *******************************
                     * LOEWDIN POPULATION ANALYSIS *
                     *******************************

-------------------------------------------
LOEWDIN ATOMIC CHARGES AND SPIN POPULATIONS
-------------------------------------------
   0 O :    0.000000    1.000000
   1 O :   -0.000000    1.000000

----------------------------------------------------
LOEWDIN REDUCED ORBITAL CHARGES AND SPIN POPULATIONS
----------------------------------------------------
CHARGE
  0 O s       :     3.555005  s :     3.555005
      pz      :     1.281718  p :     4.087329
      px      :     1.402805
      py      :     1.402805
      dz2     :     0.156059  d :     0.339979
      dxz     :     0.091960
      dyz     :     0.091960
      dx2y2   :     0.000000
      dxy     :     0.000000
      f0      :     0.007217  f :     0.017686
      f+1     :     0.005235
      f-1     :     0.005235
      f+2     :     0.000000
      f-2     :     0.000000
      f+3     :     0.000000
      f-3     :     0.000000
  1 O s       :     3.555005  s :     3.555005
      pz      :     1.281718  p :     4.087329
      px      :     1.402805
      py      :     1.402805
      dz2     :     0.156059  d :     0.339979
      dxz     :     0.091960
      dyz     :     0.091960
      dx2y2   :     0.000000
      dxy     :     0.000000
      f0      :     0.007217  f :     0.017686
      f+1     :     0.005235
      f-1     :     0.005235
      f+2     :     0.000000
      f-2     :     0.000000
      f+3     :     0.000000
      f-3     :     0.000000

SPIN
  0 O s       :     0.014927  s :     0.014927
      pz      :    -0.017846  p :     0.892349
      px      :     0.455098
      py      :     0.455098
      dz2     :     0.003016  d :     0.087903
      dxz     :     0.042444
      dyz     :     0.042444
      dx2y2   :     0.000000
      dxy     :     0.000000
      f0      :    -0.000096  f :     0.004821
      f+1     :     0.002459
      f-1     :     0.002459
      f+2     :     0.000000
      f-2     :     0.000000
      f+3     :     0.000000
      f-3     :     0.000000
  1 O s       :     0.014927  s :     0.014927
      pz      :    -0.017846  p :     0.892349
      px      :     0.455098
      py      :     0.455098
      dz2     :     0.003016  d :     0.087903
      dxz     :     0.042444
      dyz     :     0.042444
      dx2y2   :     0.000000
      dxy     :     0.000000
      f0      :    -0.000096  f :     0.004821
      f+1     :     0.002459
      f-1     :     0.002459
      f+2     :     0.000000
      f-2     :    -0.000000
      f+3     :     0.000000
      f-3     :     0.000000


                      *****************************
                      * MAYER POPULATION ANALYSIS *
                      *****************************

  NA   - Mulliken gross atomic population
  ZA   - Total nuclear charge
  QA   - Mulliken gross atomic charge
  VA   - Mayer's total valence
  BVA  - Mayer's bonded valence
  FA   - Mayer's free valence

  ATOM       NA         ZA         QA         VA         BVA        FA
  0 O      8.0000     8.0000     0.0000     2.2762     1.6941     0.5821
  1 O      8.0000     8.0000    -0.0000     2.2762     1.6941     0.5821

  Mayer bond orders larger than 0.100000
B(  0-O ,  1-O ) :   1.6941 

-------
TIMINGS
-------

Total SCF time: 0 days 0 hours 0 min 1 sec 

Total time                  ....       1.008 sec
Sum of individual times     ....       0.920 sec  ( 91.3%)

Fock matrix formation       ....       0.702 sec  ( 69.6%)
  XC integration            ....       0.076 sec  ( 10.8% of F)
    Basis function eval.    ....       0.011 sec  ( 14.3% of XC)
    Density eval.           ....       0.010 sec  ( 12.8% of XC)
    XC-Functional eval.     ....       0.005 sec  (  6.3% of XC)
    XC-Potential eval.      ....       0.017 sec  ( 22.2% of XC)
Diagonalization             ....       0.013 sec  (  1.3%)
Density matrix formation    ....       0.003 sec  (  0.3%)
Population analysis         ....       0.003 sec  (  0.3%)
Initial guess               ....       0.084 sec  (  8.4%)
Orbital Transformation      ....       0.000 sec  (  0.0%)
Orbital Orthonormalization  ....       0.000 sec  (  0.0%)
DIIS solution               ....       0.005 sec  (  0.5%)
Grid generation             ....       0.109 sec  ( 10.8%)


           ************************************************************
           *        Program running with 24 parallel MPI-processes    *
           *              working on a common directory               *
           ************************************************************

------------------------------------------------------------------------------
                                ORCA  MP2 
------------------------------------------------------------------------------

Freezing NCore=4 chemical core electrons

-------------
RI-MP2 ENERGY
-------------
Dimension of the basis                    ...   80
Memory devoted to MP2                     ... 5000 MB   
Data format for buffers                   ... DOUBLE
Compression type for matrix containers    ... UNCOMPRESSED
Overall scaling of the MP2 energy         ...   2.700e-01
Calculating two index integrals           ... done (    0.001 sec)
Cholesky decomposition of V**-1           ... done (    0.004 sec)

-----------------
RI-TRANSFORMATION (AUX index driven)
-----------------

Dimension of the orbital-basis         ... 80
Dimension of the aux-basis             ... 184
Transformation of internal/external MOs...    2-   8 to    9-  79
Number Format for Storage              ... Double (8 Byte)
Integral mode                          ... Direct

First Phase: integral generation and transformation of MO indices
  Aux angular momentum 0               ... done (    0.000 sec)
  Aux angular momentum 1               ... done (    0.000 sec)
  Aux angular momentum 2               ... done (    0.000 sec)
  Aux angular momentum 3               ... done (    0.001 sec)
  Aux angular momentum 4               ... done (    0.001 sec)
Closing buffer VIA ( 0.00 GB; CompressionRatio= 1.00)
  Phase 1 completed in     0.101 sec
Second Phase: sorting and transformation of aux index

IA-Transformation
Memory available                       ... 5000 MB 
Max. # MO pairs treated in a batch     ... 1    
# of internal orbitals                 ... 7
# batches for internal orbitals        ... 1
Closing buffer IAV ( 0.00 GB; CompressionRatio= 1.00)
(ia|v) transformation done in     0.001 sec

  Phase 2 completed in     0.004 sec
RI-Integral transformation completed in     0.106 sec

-----------------
RI-TRANSFORMATION (AUX index driven)
-----------------

Dimension of the orbital-basis         ... 80
Dimension of the aux-basis             ... 184
Transformation of internal/external MOs...    2-   6 to    7-  79
Number Format for Storage              ... Double (8 Byte)
Integral mode                          ... Direct

First Phase: integral generation and transformation of MO indices
  Aux angular momentum 0               ... done (    0.000 sec)
  Aux angular momentum 1               ... done (    0.000 sec)
  Aux angular momentum 2               ... done (    0.000 sec)
  Aux angular momentum 3               ... done (    0.001 sec)
  Aux angular momentum 4               ... done (    0.001 sec)
Closing buffer VIA ( 0.00 GB; CompressionRatio= 1.00)
  Phase 1 completed in     0.073 sec
Second Phase: sorting and transformation of aux index

IA-Transformation
Memory available                       ... 5000 MB 
Max. # MO pairs treated in a batch     ... 1    
# of internal orbitals                 ... 5
# batches for internal orbitals        ... 1
Closing buffer IAV ( 0.00 GB; CompressionRatio= 1.00)
(ia|v) transformation done in     0.002 sec

  Phase 2 completed in     0.004 sec
RI-Integral transformation completed in     0.077 sec
Opening buffers                              ... done

Starting loop over batches of integrals:

Operator 0  - window                       ... (  2-  8)x(  9- 79)
Operator 0  - Memory available             ...  5000 MB
Operator 0  - Memory needed per MO         ...   0.1 MB
Operator 0  - Number of orbitals per batch ... 1
Operator 0  - Number of batches            ... 1

OPERATOR  0   PASS   0:  MOs     2 ...    2 +    3 ...    3 +    4 ...    4 +    5 ...    5
                            +    6 ...    6 +    7 ...    7 +    8 ...    8
  Reading integrals       ... ok

Operator 1  - window                       ... (  2-  6)x(  7- 79)
Operator 1  - Memory available             ...  5000 MB
Operator 1  - Memory needed per MO         ...   0.1 MB
Operator 1  - Number of orbitals per batch ... 1
Operator 1  - Number of batches            ... 1

OPERATOR  1   PASS   0:  MOs     2 ...    2 +    3 ...    3 +    4 ...    4 +    5 ...    5
                            +    6 ...    6
  Reading integrals       ... ok
Time spent in pair loops =     0.003 sec
Deleting buffer (Ka|jb)[aa] ...done
Deleting buffer (Ka|jb)[ab] ...done
Deleting buffer (Ka|jb)[ba] ...done
Deleting buffer (Ka|jb)[bb] ...done

Correlation energy components}
 E2 and T2 for alpha/alpha pairs :     -0.018812726 Eh      0.000000000
 E2 and T2 for beta/beta   pairs :     -0.025011520 Eh      0.000000000
 E2 and T2 for alpha/beta  pairs :     -0.102309014 Eh      0.000000000


-----------------------------------------------
 RI-MP2 CORRELATION ENERGY:     -0.146133260 Eh
-----------------------------------------------


-------
TIMINGS
-------

Total time                :    0.220 sec
Integral trafo            :    0.210 sec ( 95.5%)
I/O of integrals          :    0.000 sec (  0.1%)
K(i,j) Operators          :    0.000 sec (  0.2%)
T(i,j) pair energies      :    0.000 sec (  0.0%)
V-calculation             :    0.001 sec (  0.4%)
V**(-1/2)                 :    0.004 sec (  2.0%)
Gamma(ia|P)               :    0.000 sec (  0.0%)
Gamma-Trafo               :    0.000 sec (  0.0%)
D(virtual)                :    0.000 sec (  0.0%)
D(internal)               :    0.000 sec (  0.0%)
W(virtual)                :    0.000 sec (  0.0%)
W(internal)               :    0.000 sec (  0.0%)
L(virtual)                :    0.000 sec (  0.0%)
L(internal)               :    0.000 sec (  0.0%)
G(D)                      :    0.000 sec (  0.0%)
G(Z)                      :    0.000 sec (  0.0%)
Z-Vector Solution         :    0.000 sec (  0.0%)
Z-Vector Solution         :    0.000 sec (  0.0%)
3-Index Derivative 
+ Separable RIJ part      :    0.000 sec (  0.0%)
2-Index Derivative 
+ Separable RIJ part      :    0.000 sec (  0.0%)
Separable Gradient (X)    :    0.000 sec (  0.0%)


---------------------------------------
MP2 TOTAL ENERGY:     -150.300400283 Eh
---------------------------------------


-------------------------------------------------------------------------------
                          DFT DISPERSION CORRECTION                            
                                                                               
                              DFTD3 V3.1  Rev 1                                
                          USING Becke-Johnson damping                          
-------------------------------------------------------------------------------
The B2PLYP functional is recognized
Active option DFTDOPT                   ...         4   

molecular C6(AA) [au] = 51.246886 


            DFT-D V3
 parameters
 s6 scaling factor         :     0.6400 
 a1 scaling factor         :     0.3065 
 s8 scaling factor         :     0.9147 
 a2 scaling factor         :     5.0570 
 ad hoc parameters k1-k3   :    16.0000     1.3333    -4.0000 

 Edisp/kcal,au: -0.122911753057  -0.000195872325 
 E6   /kcal   :  -0.072383489 
 E8   /kcal   :  -0.050528264 
 % E8         :  41.109383502 

-------------------------   ----------------
Dispersion correction           -0.000195872
-------------------------   ----------------


-------------------------   --------------------
FINAL SINGLE POINT ENERGY      -150.300596155216
-------------------------   --------------------


                            ***************************************
                            *     ORCA property calculations      *
                            ***************************************


  WARNING: The energy has been calculated at the MP2 level but the densities
           used in the property calculations are still SCF densities
           MP2 response densities have not been calculated 
           use %mp2 Density relaxed end
           or  %mp2 Density unrelaxed end

                                    ---------------------
                                    Active property flags
                                    ---------------------
   (+) Dipole Moment


------------------------------------------------------------------------------
                       ORCA ELECTRIC PROPERTIES CALCULATION
------------------------------------------------------------------------------

Dipole Moment Calculation                       ... on
Quadrupole Moment Calculation                   ... off
Polarizability Calculation                      ... off
GBWName                                         ... 172_o.gbw
Electron density file                           ... 172_o.scfp
The origin for moment calculation is the CENTER OF MASS  = ( 0.000000,  0.000000  0.000000)

-------------
DIPOLE MOMENT
-------------
                                X             Y             Z
Electronic contribution:      0.00000       0.00000      -0.00000
Nuclear contribution   :      0.00000       0.00000       0.00000
                        -----------------------------------------
Total Dipole Moment    :      0.00000       0.00000      -0.00000
                        -----------------------------------------
Magnitude (a.u.)       :      0.00000
Magnitude (Debye)      :      0.00000



--------------------
Rotational spectrum 
--------------------
 
Rotational constants in cm-1:     0.000000     1.410194     1.410194 
Rotational constants in MHz :     0.000000 42276.561443 42276.561443 

 Dipole components along the rotational axes: 
x,y,z [a.u.] :    -0.000000     0.000000     0.000000 
x,y,z [Debye]:    -0.000000     0.000000     0.000000 

 

Timings for individual modules:

Sum of individual times         ...        2.563 sec (=   0.043 min)
GTO integral calculation        ...        0.534 sec (=   0.009 min)  20.9 %
SCF iterations                  ...        1.342 sec (=   0.022 min)  52.4 %
MP2 module                      ...        0.686 sec (=   0.011 min)  26.8 %
                             ****ORCA TERMINATED NORMALLY****
TOTAL RUN TIME: 0 days 0 hours 0 minutes 3 seconds 54 msec
