
                                 *****************
                                 * O   R   C   A *
                                 *****************

           --- An Ab Initio, DFT and Semiempirical electronic structure package ---

                  #######################################################
                  #                        -***-                        #
                  #          Department of theory and spectroscopy      #
                  #               Directorship: Frank Neese             #
                  #        Max Planck Institute fuer Kohlenforschung    #
                  #                Kaiser Wilhelm Platz 1               #
                  #                 D-45470 Muelheim/Ruhr               #
                  #                      Germany                        #
                  #                                                     #
                  #                  All rights reserved                #
                  #                        -***-                        #
                  #######################################################


                         Program Version 4.2.0 -  RELEASE  -


 With contributions from (in alphabetic order):
   Daniel Aravena         : Magnetic Suceptibility
   Michael Atanasov       : Ab Initio Ligand Field Theory (pilot matlab implementation)
   Alexander A. Auer      : GIAO ZORA, VPT2
   Ute Becker             : Parallelization
   Giovanni Bistoni       : ED, misc. LED, open-shell LED, HFLED
   Martin Brehm           : Molecular dynamics
   Dmytro Bykov           : SCF Hessian
   Vijay G. Chilkuri      : MRCI spin determinant printing, contributions to CSF-ICE
   Dipayan Datta          : RHF DLPNO-CCSD density
   Achintya Kumar Dutta   : EOM-CC, STEOM-CC
   Dmitry Ganyushin       : Spin-Orbit,Spin-Spin,Magnetic field MRCI
   Miquel Garcia          : C-PCM Hessian, Gaussian charge scheme
   Yang Guo               : DLPNO-NEVPT2, CIM, IAO-localization
   Andreas Hansen         : Spin unrestricted coupled pair/coupled cluster methods
   Benjamin Helmich-Paris : CASSCF linear response (MC-RPA)
   Lee Huntington         : MR-EOM, pCC
   Robert Izsak           : Overlap fitted RIJCOSX, COSX-SCS-MP3, EOM
   Christian Kollmar      : KDIIS, OOCD, Brueckner-CCSD(T), CCSD density
   Simone Kossmann        : Meta GGA functionals, TD-DFT gradient, OOMP2, MP2 Hessian
   Martin Krupicka        : AUTO-CI
   Lucas Lang             : DCDCAS
   Dagmar Lenk            : GEPOL surface, SMD
   Dimitrios Liakos       : Extrapolation schemes; Compound Job, initial MDCI parallelization
   Dimitrios Manganas     : Further ROCIS development; embedding schemes
   Dimitrios Pantazis     : SARC Basis sets
   Taras Petrenko         : DFT Hessian,TD-DFT gradient, ASA, ECA, R-Raman, ABS, FL, XAS/XES, NRVS
   Peter Pinski           : DLPNO-MP2, DLPNO-MP2 Gradient
   Christoph Reimann      : Effective Core Potentials
   Marius Retegan         : Local ZFS, SOC
   Christoph Riplinger    : Optimizer, TS searches, QM/MM, DLPNO-CCSD(T), (RO)-DLPNO pert. Triples
   Tobias Risthaus        : Range-separated hybrids, TD-DFT gradient, RPA, STAB
   Michael Roemelt        : Original ROCIS implementation
   Masaaki Saitow         : Open-shell DLPNO-CCSD energy and density
   Barbara Sandhoefer     : DKH picture change effects
   Avijit Sen             : IP-ROCIS
   Kantharuban Sivalingam : CASSCF convergence, NEVPT2, FIC-MRCI
   Bernardo de Souza      : ESD, SOC TD-DFT
   Georgi Stoychev        : AutoAux, RI-MP2 NMR
   Willem Van den Heuvel  : Paramagnetic NMR
   Boris Wezisla          : Elementary symmetry handling
   Frank Wennmohs         : Technical directorship


 We gratefully acknowledge several colleagues who have allowed us to
 interface, adapt or use parts of their codes:
   Stefan Grimme, W. Hujo, H. Kruse,             : VdW corrections, initial TS optimization,
                  C. Bannwarth                     DFT functionals, gCP, sTDA/sTD-DF
   Ed Valeev, F. Pavosevic, A. Kumar             : LibInt (2-el integral package), F12 methods
   Garnet Chan, S. Sharma, J. Yang, R. Olivares  : DMRG
   Ulf Ekstrom                                   : XCFun DFT Library
   Mihaly Kallay                                 : mrcc  (arbitrary order and MRCC methods)
   Andreas Klamt, Michael Diedenhofen            : otool_cosmo (COSMO solvation model)
   Jiri Pittner, Ondrej Demel                    : Mk-CCSD
   Frank Weinhold                                : gennbo (NPA and NBO analysis)
   Christopher J. Cramer and Donald G. Truhlar   : smd solvation model
   Lars Goerigk                                  : TD-DFT with DH, B97 family of functionals
   V. Asgeirsson, H. Jonsson                     : NEB implementation
   FAccTs GmbH                                   : IRC, NEB, NEB-TS, Multilevel, MM, QM/MM, CI optimization
   S Lehtola, MJT Oliveira, MAL Marques          : LibXC Library


 Your calculation uses the libint2 library for the computation of 2-el integrals
 For citations please refer to: http://libint.valeyev.net

 Your ORCA version has been built with support for libXC version: 4.2.3
 For citations please refer to: https://tddft.org/programs/libxc/

 This ORCA versions uses:
   CBLAS   interface :  Fast vector & matrix operations
   LAPACKE interface :  Fast linear algebra routines
   SCALAPACK package :  Parallel linear algebra routines


Your calculation utilizes the atom-pairwise dispersion correction
with the Becke-Johnson damping scheme (D3BJ)
Cite in your paper:
S.Grimme, S.Ehrlich, L.Goerigk, J Comput Chem, (2011), 32, 1456–1465 
S.Grimme, J.Antony, S.Ehrlich and H.Krieg, J.Chem.Phys., 132, (2010), 154104 
   

----- Orbital basis set information -----
Your calculation utilizes the basis: def2-TZVPPD
   F. Weigend and R. Ahlrichs, Phys. Chem. Chem. Phys. 7, 3297 (2005).
   D. Rappoport and F. Furche, J. Chem. Phys. 133 134105 (2010).

----- AuxC basis set information -----
Your calculation utilizes the auxiliary basis: def2-TZVPPD/C
   A. Hellweg, C. Hattig, S. Hofener and W. Klopper, Theor. Chem. Acc. 117, 587 (2007).

----- AuxJK basis set information -----
Your calculation utilizes the auxiliary basis: def2/JK
   H-Ba, Hf-Rn: F. Weigend, J. Comput. Chem. 29, 167 (2008).

================================================================================
                                        WARNINGS
                       Please study these warnings very carefully!
================================================================================


WARNING: No MP2 level density has been requested!
         To caclulate MP2 level properties use
         %mp2 Density relaxed end
         or
         %mp2 Density unrelaxed end
         Otherwise for double-hybrid DFT only the energy is correct!

WARNING: The frozen-core approximation is turned on by default for 
         the MP2 part of double-hybrid DFT.

INFO   : the flag for use of LIBINT has been found!

================================================================================
                                       INPUT FILE
================================================================================
NAME = 174_na.in
|  1> #
|  2> # 174_na ri-B2PLYP-D3BJ/Def2-TZVPPD
|  3> #
|  4> ! rijk ri-b2plyp d3bj def2-tzvppd def2/jk def2-tzvppd/c grid4 nofinalgrid
|  5> 
|  6> *xyz 0 1
|  7> Na         0.00000        0.00000        0.94863
|  8> H          0.00000        0.00000       -0.94863
|  9> *
| 10> 
| 11> %maxcore 5000
| 12> 
| 13> %pal
| 14> nprocs = 24
| 15> end
| 16> 
| 17> 
| 18>                          ****END OF INPUT****
================================================================================

                       ****************************
                       * Single Point Calculation *
                       ****************************

---------------------------------
CARTESIAN COORDINATES (ANGSTROEM)
---------------------------------
  Na     0.000000    0.000000    0.948630
  H      0.000000    0.000000   -0.948630

----------------------------
CARTESIAN COORDINATES (A.U.)
----------------------------
  NO LB      ZA    FRAG     MASS         X           Y           Z
   0 Na   11.0000    0    22.990    0.000000    0.000000    1.792651
   1 H     1.0000    0     1.008    0.000000    0.000000   -1.792651

--------------------------------
INTERNAL COORDINATES (ANGSTROEM)
--------------------------------
 Na     0   0   0     0.000000000000     0.00000000     0.00000000
 H      1   0   0     1.897260000000     0.00000000     0.00000000

---------------------------
INTERNAL COORDINATES (A.U.)
---------------------------
 Na     0   0   0     0.000000000000     0.00000000     0.00000000
 H      1   0   0     3.585301804843     0.00000000     0.00000000

---------------------
BASIS SET INFORMATION
---------------------
There are 2 groups of distinct atoms

 Group   1 Type Na  : 14s9p3d contracted to 5s5p3d pattern {73211/51111/111}
 Group   2 Type H   : 5s3p1d contracted to 3s3p1d pattern {311/111/1}

Atom   0Na   basis set group =>   1
Atom   1H    basis set group =>   2
---------------------------------
AUXILIARY/C BASIS SET INFORMATION
---------------------------------
There are 2 groups of distinct atoms

 Group   1 Type Na  : 11s9p7d5f contracted to 11s9p7d5f pattern {11111111111/111111111/1111111/11111}
 Group   2 Type H   : 5s4p3d1f contracted to 5s4p3d1f pattern {11111/1111/111/1}

Atom   0Na   basis set group =>   1
Atom   1H    basis set group =>   2
----------------------------------
AUXILIARY/JK BASIS SET INFORMATION
----------------------------------
There are 2 groups of distinct atoms

 Group   1 Type Na  : 16s12p9d4f1g contracted to 13s9p7d4f1g pattern {4111111111111/411111111/3111111/1111/1}
 Group   2 Type H   : 4s2p2d contracted to 2s2p2d pattern {31/11/11}

Atom   0Na   basis set group =>   1
Atom   1H    basis set group =>   2


           ************************************************************
           *        Program running with 24 parallel MPI-processes    *
           *              working on a common directory               *
           ************************************************************
------------------------------------------------------------------------------
                           ORCA GTO INTEGRAL CALCULATION
                           -- RI-GTO INTEGRALS CHOSEN --
------------------------------------------------------------------------------

                         BASIS SET STATISTICS AND STARTUP INFO

Gaussian basis set:
 # of primitive gaussian shells          ...   35
 # of primitive gaussian functions       ...   75
 # of contracted shells                  ...   20
 # of contracted basis functions         ...   52
 Highest angular momentum                ...    2
 Maximum contraction depth               ...    7
Auxiliary gaussian basis set:
 # of primitive gaussian shells          ...   50
 # of primitive gaussian functions       ...  154
 # of contracted shells                  ...   40
 # of contracted aux-basis functions     ...  130
 Highest angular momentum                ...    4
 Maximum contraction depth               ...    4
Ratio of auxiliary to basis functions    ...  2.50
Integral package used                  ... LIBINT
 One Electron integrals                  ... done
 Ordering auxiliary basis shells         ... done
 Integral threshhold             Thresh  ...  1.000e-10
 Primitive cut-off               TCut    ...  1.000e-11
 Pre-screening matrix                    ... done
 Shell pair data                         ... 
 Ordering of the shell pairs             ... done (   0.000 sec) 210 of 210 pairs
 Determination of significant pairs      ... done (   0.000 sec)
 Creation of shell pair data             ... done (   0.000 sec)
 Storage of shell pair data              ... done (   0.003 sec)
 Shell pair data done in (   0.004 sec)
 Computing two index integrals           ... done
 Cholesky decomposition of the V-matrix  ... done


Timings:
 Total evaluation time                   ...   0.200 sec (  0.003 min)
 One electron matrix time                ...   0.031 sec (  0.001 min) = 15.3%
 Schwartz matrix evaluation time         ...   0.140 sec (  0.002 min) = 70.0%
 Two index repulsion integral time       ...   0.001 sec (  0.000 min) =  0.3%
 Cholesky decomposition of V             ...   0.001 sec (  0.000 min) =  0.5%
 Three index repulsion integral time     ...   0.000 sec (  0.000 min) =  0.0%



           ************************************************************
           *        Program running with 24 parallel MPI-processes    *
           *              working on a common directory               *
           ************************************************************
-------------------------------------------------------------------------------
                                 ORCA SCF
-------------------------------------------------------------------------------

------------
SCF SETTINGS
------------
Hamiltonian:
 Density Functional     Method          .... DFT(GTOs)
 Exchange Functional    Exchange        .... B88
   X-Alpha parameter    XAlpha          ....  0.666667
   Becke's b parameter  XBeta           ....  0.004200
 Correlation Functional Correlation     .... LYP
 LDA part of GGA corr.  LDAOpt          .... VWN-3
 Gradients option       PostSCFGGA      .... off
 Hybrid DFT is turned on
   Fraction HF Exchange ScalHFX         ....  0.530000
   Scaling of DF-GGA-X  ScalDFX         ....  0.470000
   Scaling of DF-GGA-C  ScalDFC         ....  0.730000
   Scaling of DF-LDA-C  ScalLDAC        ....  0.730000
   Perturbative correction              ....  0.270000
   Density functional embedding theory  .... OFF
 RI-approximation to the Coulomb term is turned on
   Number of auxiliary basis functions  .... 130
   RI-JK (J+K treated both via RI)      .... on


General Settings:
 Integral files         IntName         .... 174_na
 Hartree-Fock type      HFTyp           .... RHF
 Total Charge           Charge          ....    0
 Multiplicity           Mult            ....    1
 Number of Electrons    NEL             ....   12
 Basis Dimension        Dim             ....   52
 Nuclear Repulsion      ENuc            ....      3.0680820190 Eh

Convergence Acceleration:
 DIIS                   CNVDIIS         .... on
   Start iteration      DIISMaxIt       ....    12
   Startup error        DIISStart       ....  0.200000
   # of expansion vecs  DIISMaxEq       ....     5
   Bias factor          DIISBfac        ....   1.050
   Max. coefficient     DIISMaxC        ....  10.000
 Newton-Raphson         CNVNR           .... off
 SOSCF                  CNVSOSCF        .... on
   Start iteration      SOSCFMaxIt      ....   150
   Startup grad/error   SOSCFStart      ....  0.003300
 Level Shifting         CNVShift        .... on
   Level shift para.    LevelShift      ....    0.2500
   Turn off err/grad.   ShiftErr        ....    0.0010
 Zerner damping         CNVZerner       .... off
 Static damping         CNVDamp         .... on
   Fraction old density DampFac         ....    0.7000
   Max. Damping (<1)    DampMax         ....    0.9800
   Min. Damping (>=0)   DampMin         ....    0.0000
   Turn off err/grad.   DampErr         ....    0.1000
 Fernandez-Rico         CNVRico         .... off

SCF Procedure:
 Maximum # iterations   MaxIter         ....   125
 SCF integral mode      SCFMode         .... Direct
   Integral package                     .... LIBINT
 Reset frequency        DirectResetFreq ....    20
 Integral Threshold     Thresh          ....  1.000e-10 Eh
 Primitive CutOff       TCut            ....  1.000e-11 Eh

Convergence Tolerance:
 Convergence Check Mode ConvCheckMode   .... Total+1el-Energy
 Convergence forced     ConvForced      .... 0
 Energy Change          TolE            ....  1.000e-06 Eh
 1-El. energy change                    ....  1.000e-03 Eh
 Orbital Gradient       TolG            ....  5.000e-05
 Orbital Rotation angle TolX            ....  5.000e-05
 DIIS Error             TolErr          ....  1.000e-06


Diagonalization of the overlap matrix:
Smallest eigenvalue                        ... 3.893e-03
Time for diagonalization                   ...    0.002 sec
Threshold for overlap eigenvalues          ... 1.000e-08
Number of eigenvalues below threshold      ... 0
Time for construction of square roots      ...    0.001 sec
Total time needed                          ...    0.003 sec

-------------------
DFT GRID GENERATION
-------------------

General Integration Accuracy     IntAcc      ...  4.670
Radial Grid Type                 RadialGrid  ... Gauss-Chebyshev
Angular Grid (max. acc.)         AngularGrid ... Lebedev-302
Angular grid pruning method      GridPruning ... 3 (G Style)
Weight generation scheme         WeightScheme... Becke
Basis function cutoff            BFCut       ...    1.0000e-10
Integration weight cutoff        WCut        ...    1.0000e-14
Grids for H and He will be reduced by one unit

# of grid points (after initial pruning)     ...   9928 (   0.0 sec)
# of grid points (after weights+screening)   ...   9879 (   0.0 sec)
nearest neighbour list constructed           ...    0.0 sec
Grid point re-assignment to atoms done       ...    0.0 sec
Grid point division into batches done        ...    0.1 sec
Reduced shell lists constructed in    0.1 sec

Total number of grid points                  ...     9879
Total number of batches                      ...      156
Average number of points per batch           ...       63
Average number of grid points per atom       ...     4940
Average number of shells per batch           ...     6.25 (31.25%)
Average number of basis functions per batch  ...    15.75 (30.29%)
Average number of large shells per batch     ...     3.88 (62.00%)
Average number of large basis fcns per batch ...     8.88 (56.35%)
Average number of aux-shells per batch       ...     6.25 (15.62%)
Average number of aux functions per batch    ...    15.75 (12.12%)
Maximum spatial batch extension              ...  35.44, 32.23, 19.19 au
Average spatial batch extension              ...   1.26,  1.05,  0.81 au

Time for grid setup =    0.076 sec

------------------------------
INITIAL GUESS: MODEL POTENTIAL
------------------------------
Loading Hartree-Fock densities                     ... done
Calculating cut-offs                               ... done
Setting up the integral package                    ... done
Initializing the effective Hamiltonian             ... done
Starting the Coulomb interaction                   ... done (   0.0 sec)
Reading the grid                                   ... done
Mapping shells                                     ... done
Starting the XC term evaluation                    ... done (   0.0 sec)
  promolecular density results
     # of electrons  =     11.999520033
     EX              =    -14.288422231
     EC              =     -0.141481719
     EX+EC           =    -14.429903951
Transforming the Hamiltonian                       ... done (   0.0 sec)
Diagonalizing the Hamiltonian                      ... done (   0.0 sec)
Back transforming the eigenvectors                 ... done (   0.0 sec)
Now organizing SCF variables                       ... done
                      ------------------
                      INITIAL GUESS DONE (   0.2 sec)
                      ------------------
--------------
SCF ITERATIONS
--------------
ITER       Energy         Delta-E        Max-DP      RMS-DP      [F,P]     Damp
  0   -162.6710826546   0.000000000000 0.04415458  0.00160936  0.2136863 0.7000
  1   -162.6879532745  -0.016870619884 0.05073793  0.00194736  0.2040527 0.7000
                               ***Turning on DIIS***
  2   -162.6899493621  -0.001996087582 0.04866390  0.00184014  0.1448847 0.7000
  3   -162.6912529488  -0.001303586695 0.13427127  0.00465574  0.0814969 0.0000
  4   -162.7112532938  -0.020000345095 0.03544924  0.00108240  0.0604595 0.0000
  5   -162.7144083038  -0.003155009944 0.02413282  0.00069673  0.0343649 0.0000
  6   -162.7155407188  -0.001132415000 0.01608125  0.00047955  0.0212785 0.0000
  7   -162.7160124840  -0.000471765174 0.01038892  0.00031923  0.0128571 0.0000
  8   -162.7162071934  -0.000194709420 0.00790561  0.00024703  0.0075690 0.0000
  9   -162.7162965586  -0.000089365194 0.00364654  0.00012168  0.0035365 0.0000
                      *** Initiating the SOSCF procedure ***
                           *** Shutting down DIIS ***
                      *** Re-Reading the Fockian *** 
                      *** Removing any level shift *** 
ITER      Energy       Delta-E        Grad      Rot      Max-DP    RMS-DP
 10   -162.71631775  -0.0000211868  0.000772  0.000772  0.001710  0.000059
 11   -162.71632400  -0.0000062589  0.000503  0.002649  0.001387  0.000061
 12   -162.71632704  -0.0000030369  0.000225  0.000317  0.000454  0.000020
                 **** Energy Check signals convergence ****
              ***Rediagonalizing the Fockian in SOSCF/NRSCF***

               *****************************************************
               *                     SUCCESS                       *
               *           SCF CONVERGED AFTER  13 CYCLES          *
               *****************************************************


----------------
TOTAL SCF ENERGY
----------------

Total Energy       :         -162.71632736 Eh           -4427.73637 eV

Components:
Nuclear Repulsion  :            3.06808202 Eh              83.48676 eV
Electronic Energy  :         -165.78440938 Eh           -4511.22313 eV
One Electron Energy:         -234.71364957 Eh           -6386.88311 eV
Two Electron Energy:           68.92924019 Eh            1875.65998 eV

Virial components:
Potential Energy   :         -324.93199866 Eh           -8841.84919 eV
Kinetic Energy     :          162.21567130 Eh            4414.11283 eV
Virial Ratio       :            2.00308636


DFT components:
N(Alpha)           :        6.000002190511 electrons
N(Beta)            :        6.000002190511 electrons
N(Total)           :       12.000004381022 electrons
E(X)               :       -6.747961415548 Eh       
E(C)               :       -0.322253975686 Eh       
E(XC)              :       -7.070215391234 Eh       
DFET-embed. en.    :        0.000000000000 Eh       

---------------
SCF CONVERGENCE
---------------

  Last Energy change         ...   -3.2362e-07  Tolerance :   1.0000e-06
  Last MAX-Density change    ...    1.2080e-04  Tolerance :   1.0000e-05
  Last RMS-Density change    ...    4.2387e-06  Tolerance :   1.0000e-06
  Last Orbital Gradient      ...    1.7780e-05  Tolerance :   5.0000e-05
  Last Orbital Rotation      ...    6.8095e-05  Tolerance :   5.0000e-05

             **** THE GBW FILE WAS UPDATED (174_na.gbw) ****
             **** DENSITY FILE WAS UPDATED (174_na.scfp) ****
             **** ENERGY FILE WAS UPDATED (174_na.en.tmp) ****
             **** THE GBW FILE WAS UPDATED (174_na.gbw) ****
             **** DENSITY FILE WAS UPDATED (174_na.scfp) ****
----------------
ORBITAL ENERGIES
----------------

  NO   OCC          E(Eh)            E(eV) 
   0   2.0000     -39.313322     -1069.7699 
   1   2.0000      -2.456411       -66.8423 
   2   2.0000      -1.301624       -35.4190 
   3   2.0000      -1.301624       -35.4190 
   4   2.0000      -1.299260       -35.3547 
   5   2.0000      -0.221279        -6.0213 
   6   0.0000      -0.031498        -0.8571 
   7   0.0000       0.007679         0.2090 
   8   0.0000       0.007679         0.2090 
   9   0.0000       0.026765         0.7283 
  10   0.0000       0.049907         1.3580 
  11   0.0000       0.049907         1.3580 
  12   0.0000       0.050709         1.3799 
  13   0.0000       0.105154         2.8614 
  14   0.0000       0.203320         5.5326 
  15   0.0000       0.209246         5.6939 
  16   0.0000       0.209246         5.6939 
  17   0.0000       0.212138         5.7726 
  18   0.0000       0.212138         5.7726 
  19   0.0000       0.231444         6.2979 
  20   0.0000       0.231444         6.2979 
  21   0.0000       0.270793         7.3687 
  22   0.0000       0.347735         9.4623 
  23   0.0000       0.347735         9.4623 
  24   0.0000       0.374115        10.1802 
  25   0.0000       0.576024        15.6744 
  26   0.0000       0.957209        26.0470 
  27   0.0000       0.968365        26.3505 
  28   0.0000       0.968365        26.3505 
  29   0.0000       1.101568        29.9752 
  30   0.0000       1.101568        29.9752 
  31   0.0000       1.178760        32.0757 
  32   0.0000       1.179523        32.0964 
  33   0.0000       1.179523        32.0964 
  34   0.0000       1.326695        36.1012 
  35   0.0000       1.326695        36.1012 
  36   0.0000       1.560457        42.4622 
  37   0.0000       2.790212        75.9255 
  38   0.0000       3.437769        93.5465 
  39   0.0000       3.437773        93.5466 
  40   0.0000       3.478088        94.6436 
  41   0.0000       3.478088        94.6436 
  42   0.0000       3.483587        94.7932 
  43   0.0000       3.789461       103.1165 
  44   0.0000       4.057919       110.4216 
  45   0.0000       4.057919       110.4216 
  46   0.0000       4.306449       117.1844 
  47   0.0000       5.879341       159.9850 
  48   0.0000       5.879341       159.9850 
  49   0.0000       5.908867       160.7885 
  50   0.0000       5.908867       160.7885 
  51   0.0000       6.010752       163.5609 

                    ********************************
                    * MULLIKEN POPULATION ANALYSIS *
                    ********************************

-----------------------
MULLIKEN ATOMIC CHARGES
-----------------------
   0 Na:    0.505270
   1 H :   -0.505270
Sum of atomic charges:   -0.0000000

--------------------------------
MULLIKEN REDUCED ORBITAL CHARGES
--------------------------------
  0 Nas       :     4.405340  s :     4.405340
      pz      :     2.080007  p :     6.080010
      px      :     2.000002
      py      :     2.000002
      dz2     :     0.009187  d :     0.009380
      dxz     :     0.000097
      dyz     :     0.000097
      dx2y2   :     0.000000
      dxy     :     0.000000
  1 H s       :     1.492295  s :     1.492295
      pz      :     0.013158  p :     0.012956
      px      :    -0.000101
      py      :    -0.000101
      dz2     :     0.000013  d :     0.000019
      dxz     :     0.000003
      dyz     :     0.000003
      dx2y2   :     0.000000
      dxy     :     0.000000


                     *******************************
                     * LOEWDIN POPULATION ANALYSIS *
                     *******************************

----------------------
LOEWDIN ATOMIC CHARGES
----------------------
   0 Na:    0.309160
   1 H :   -0.309160

-------------------------------
LOEWDIN REDUCED ORBITAL CHARGES
-------------------------------
  0 Nas       :     4.451107  s :     4.451107
      pz      :     2.181043  p :     6.178259
      px      :     1.998608
      py      :     1.998608
      dz2     :     0.061237  d :     0.061474
      dxz     :     0.000119
      dyz     :     0.000119
      dx2y2   :     0.000000
      dxy     :     0.000000
  1 H s       :     1.256460  s :     1.256460
      pz      :     0.049791  p :     0.052317
      px      :     0.001263
      py      :     0.001263
      dz2     :     0.000362  d :     0.000384
      dxz     :     0.000011
      dyz     :     0.000011
      dx2y2   :     0.000000
      dxy     :     0.000000


                      *****************************
                      * MAYER POPULATION ANALYSIS *
                      *****************************

  NA   - Mulliken gross atomic population
  ZA   - Total nuclear charge
  QA   - Mulliken gross atomic charge
  VA   - Mayer's total valence
  BVA  - Mayer's bonded valence
  FA   - Mayer's free valence

  ATOM       NA         ZA         QA         VA         BVA        FA
  0 Na    10.4947    11.0000     0.5053     0.7508     0.7508    -0.0000
  1 H      1.5053     1.0000    -0.5053     0.7508     0.7508    -0.0000

  Mayer bond orders larger than 0.100000
B(  0-Na,  1-H ) :   0.7508 

-------
TIMINGS
-------

Total SCF time: 0 days 0 hours 0 min 1 sec 

Total time                  ....       1.448 sec
Sum of individual times     ....       1.351 sec  ( 93.3%)

Fock matrix formation       ....       1.118 sec  ( 77.2%)
  XC integration            ....       0.082 sec  (  7.3% of F)
    Basis function eval.    ....       0.007 sec  (  8.9% of XC)
    Density eval.           ....       0.004 sec  (  4.9% of XC)
    XC-Functional eval.     ....       0.005 sec  (  5.8% of XC)
    XC-Potential eval.      ....       0.004 sec  (  5.1% of XC)
Diagonalization             ....       0.005 sec  (  0.4%)
Density matrix formation    ....       0.002 sec  (  0.2%)
Population analysis         ....       0.002 sec  (  0.1%)
Initial guess               ....       0.141 sec  (  9.7%)
Orbital Transformation      ....       0.000 sec  (  0.0%)
Orbital Orthonormalization  ....       0.000 sec  (  0.0%)
DIIS solution               ....       0.005 sec  (  0.4%)
SOSCF solution              ....       0.001 sec  (  0.1%)
Grid generation             ....       0.076 sec  (  5.3%)


           ************************************************************
           *        Program running with 24 parallel MPI-processes    *
           *              working on a common directory               *
           ************************************************************

------------------------------------------------------------------------------
                                ORCA  MP2 
------------------------------------------------------------------------------

Freezing NCore=2 chemical core electrons

-------------
RI-MP2 ENERGY
-------------
Dimension of the basis                    ...   52
Memory devoted to MP2                     ... 5000 MB   
Data format for buffers                   ... DOUBLE
Compression type for matrix containers    ... UNCOMPRESSED
Overall scaling of the MP2 energy         ...   2.700e-01
Calculating two index integrals           ... done (    0.001 sec)
Cholesky decomposition of V**-1           ... done (    0.004 sec)

-----------------
RI-TRANSFORMATION (AUX index driven)
-----------------

Dimension of the orbital-basis         ... 52
Dimension of the aux-basis             ... 147
Transformation of internal/external MOs...    1-   5 to    6-  51
Number Format for Storage              ... Double (8 Byte)
Integral mode                          ... Direct

First Phase: integral generation and transformation of MO indices
  Aux angular momentum 0               ... done (    0.000 sec)
  Aux angular momentum 1               ... done (    0.000 sec)
  Aux angular momentum 2               ... done (    0.000 sec)
  Aux angular momentum 3               ... done (    0.000 sec)
Closing buffer VIA ( 0.00 GB; CompressionRatio= 0.99)
  Phase 1 completed in     0.126 sec
Second Phase: sorting and transformation of aux index

IA-Transformation
Memory available                       ... 5000 MB 
Max. # MO pairs treated in a batch     ... 1    
# of internal orbitals                 ... 5
# batches for internal orbitals        ... 1
Closing buffer IAV ( 0.00 GB; CompressionRatio= 1.00)
(ia|v) transformation done in     0.001 sec

  Phase 2 completed in     0.003 sec
RI-Integral transformation completed in     0.131 sec
Opening buffers                              ... done

Starting loop over batches of integrals:

Operator 0  - window                       ... (  1-  5)x(  6- 51)
Operator 0  - Memory available             ...  5000 MB
Operator 0  - Memory needed per MO         ...   0.1 MB
Operator 0  - Number of orbitals per batch ... 1
Operator 0  - Number of batches            ... 1

OPERATOR  0   PASS   0:  MOs     1 ...    1 +    2 ...    2 +    3 ...    3 +    4 ...    4
                            +    5 ...    5
  Reading integrals       ... ok
Time spent in pair loops =     0.001 sec
Deleting buffer (Ka|jb)[aa] ...done

-----------------------------------------------
 RI-MP2 CORRELATION ENERGY:     -0.059235324 Eh
-----------------------------------------------


-------
TIMINGS
-------

Total time                :    0.150 sec
Integral trafo            :    0.144 sec ( 95.5%)
I/O of integrals          :    0.000 sec (  0.0%)
K(i,j) Operators          :    0.000 sec (  0.0%)
T(i,j) pair energies      :    0.000 sec (  0.0%)
V-calculation             :    0.001 sec (  0.6%)
V**(-1/2)                 :    0.004 sec (  2.4%)
Gamma(ia|P)               :    0.000 sec (  0.0%)
Gamma-Trafo               :    0.000 sec (  0.0%)
D(virtual)                :    0.000 sec (  0.0%)
D(internal)               :    0.000 sec (  0.0%)
W(virtual)                :    0.000 sec (  0.0%)
W(internal)               :    0.000 sec (  0.0%)
L(virtual)                :    0.000 sec (  0.0%)
L(internal)               :    0.000 sec (  0.0%)
G(D)                      :    0.000 sec (  0.0%)
G(Z)                      :    0.000 sec (  0.0%)
Z-Vector Solution         :    0.000 sec (  0.0%)
Z-Vector Solution         :    0.000 sec (  0.0%)
3-Index Derivative 
+ Separable RIJ part      :    0.000 sec (  0.0%)
2-Index Derivative 
+ Separable RIJ part      :    0.000 sec (  0.0%)
Separable Gradient (X)    :    0.000 sec (  0.0%)


---------------------------------------
MP2 TOTAL ENERGY:     -162.775562689 Eh
---------------------------------------


-------------------------------------------------------------------------------
                          DFT DISPERSION CORRECTION                            
                                                                               
                              DFTD3 V3.1  Rev 1                                
                          USING Becke-Johnson damping                          
-------------------------------------------------------------------------------
The B2PLYP functional is recognized
Active option DFTDOPT                   ...         4   

molecular C6(AA) [au] = 248.025763 


            DFT-D V3
 parameters
 s6 scaling factor         :     0.6400 
 a1 scaling factor         :     0.3065 
 s8 scaling factor         :     0.9147 
 a2 scaling factor         :     5.0570 
 ad hoc parameters k1-k3   :    16.0000     1.3333    -4.0000 

 Edisp/kcal,au: -0.160201789211  -0.000255297774 
 E6   /kcal   :  -0.073602791 
 E8   /kcal   :  -0.086598998 
 % E8         :  54.056199065 

-------------------------   ----------------
Dispersion correction           -0.000255298
-------------------------   ----------------


-------------------------   --------------------
FINAL SINGLE POINT ENERGY      -162.775817986448
-------------------------   --------------------


                            ***************************************
                            *     ORCA property calculations      *
                            ***************************************


  WARNING: The energy has been calculated at the MP2 level but the densities
           used in the property calculations are still SCF densities
           MP2 response densities have not been calculated 
           use %mp2 Density relaxed end
           or  %mp2 Density unrelaxed end

                                    ---------------------
                                    Active property flags
                                    ---------------------
   (+) Dipole Moment


------------------------------------------------------------------------------
                       ORCA ELECTRIC PROPERTIES CALCULATION
------------------------------------------------------------------------------

Dipole Moment Calculation                       ... on
Quadrupole Moment Calculation                   ... off
Polarizability Calculation                      ... off
GBWName                                         ... 174_na.gbw
Electron density file                           ... 174_na.scfp
The origin for moment calculation is the CENTER OF MASS  = ( 0.000000,  0.000000  1.642056)

-------------
DIPOLE MOMENT
-------------
                                X             Y             Z
Electronic contribution:      0.00000      -0.00000       4.31497
Nuclear contribution   :      0.00000       0.00000      -1.77816
                        -----------------------------------------
Total Dipole Moment    :      0.00000      -0.00000       2.53681
                        -----------------------------------------
Magnitude (a.u.)       :      2.53681
Magnitude (Debye)      :      6.44806



--------------------
Rotational spectrum 
--------------------
 
Rotational constants in cm-1:     0.000000     4.849743     4.849743 
Rotational constants in MHz :     0.000000 145391.644375 145391.644375 

 Dipole components along the rotational axes: 
x,y,z [a.u.] :     2.536811    -0.000000     0.000000 
x,y,z [Debye]:     6.448060    -0.000000     0.000000 

 

Timings for individual modules:

Sum of individual times         ...        3.168 sec (=   0.053 min)
GTO integral calculation        ...        0.654 sec (=   0.011 min)  20.6 %
SCF iterations                  ...        1.845 sec (=   0.031 min)  58.2 %
MP2 module                      ...        0.669 sec (=   0.011 min)  21.1 %
                             ****ORCA TERMINATED NORMALLY****
TOTAL RUN TIME: 0 days 0 hours 0 minutes 3 seconds 763 msec
