
                                 *****************
                                 * O   R   C   A *
                                 *****************

           --- An Ab Initio, DFT and Semiempirical electronic structure package ---

                  #######################################################
                  #                        -***-                        #
                  #          Department of theory and spectroscopy      #
                  #               Directorship: Frank Neese             #
                  #        Max Planck Institute fuer Kohlenforschung    #
                  #                Kaiser Wilhelm Platz 1               #
                  #                 D-45470 Muelheim/Ruhr               #
                  #                      Germany                        #
                  #                                                     #
                  #                  All rights reserved                #
                  #                        -***-                        #
                  #######################################################


                         Program Version 4.2.0 -  RELEASE  -


 With contributions from (in alphabetic order):
   Daniel Aravena         : Magnetic Suceptibility
   Michael Atanasov       : Ab Initio Ligand Field Theory (pilot matlab implementation)
   Alexander A. Auer      : GIAO ZORA, VPT2
   Ute Becker             : Parallelization
   Giovanni Bistoni       : ED, misc. LED, open-shell LED, HFLED
   Martin Brehm           : Molecular dynamics
   Dmytro Bykov           : SCF Hessian
   Vijay G. Chilkuri      : MRCI spin determinant printing, contributions to CSF-ICE
   Dipayan Datta          : RHF DLPNO-CCSD density
   Achintya Kumar Dutta   : EOM-CC, STEOM-CC
   Dmitry Ganyushin       : Spin-Orbit,Spin-Spin,Magnetic field MRCI
   Miquel Garcia          : C-PCM Hessian, Gaussian charge scheme
   Yang Guo               : DLPNO-NEVPT2, CIM, IAO-localization
   Andreas Hansen         : Spin unrestricted coupled pair/coupled cluster methods
   Benjamin Helmich-Paris : CASSCF linear response (MC-RPA)
   Lee Huntington         : MR-EOM, pCC
   Robert Izsak           : Overlap fitted RIJCOSX, COSX-SCS-MP3, EOM
   Christian Kollmar      : KDIIS, OOCD, Brueckner-CCSD(T), CCSD density
   Simone Kossmann        : Meta GGA functionals, TD-DFT gradient, OOMP2, MP2 Hessian
   Martin Krupicka        : AUTO-CI
   Lucas Lang             : DCDCAS
   Dagmar Lenk            : GEPOL surface, SMD
   Dimitrios Liakos       : Extrapolation schemes; Compound Job, initial MDCI parallelization
   Dimitrios Manganas     : Further ROCIS development; embedding schemes
   Dimitrios Pantazis     : SARC Basis sets
   Taras Petrenko         : DFT Hessian,TD-DFT gradient, ASA, ECA, R-Raman, ABS, FL, XAS/XES, NRVS
   Peter Pinski           : DLPNO-MP2, DLPNO-MP2 Gradient
   Christoph Reimann      : Effective Core Potentials
   Marius Retegan         : Local ZFS, SOC
   Christoph Riplinger    : Optimizer, TS searches, QM/MM, DLPNO-CCSD(T), (RO)-DLPNO pert. Triples
   Tobias Risthaus        : Range-separated hybrids, TD-DFT gradient, RPA, STAB
   Michael Roemelt        : Original ROCIS implementation
   Masaaki Saitow         : Open-shell DLPNO-CCSD energy and density
   Barbara Sandhoefer     : DKH picture change effects
   Avijit Sen             : IP-ROCIS
   Kantharuban Sivalingam : CASSCF convergence, NEVPT2, FIC-MRCI
   Bernardo de Souza      : ESD, SOC TD-DFT
   Georgi Stoychev        : AutoAux, RI-MP2 NMR
   Willem Van den Heuvel  : Paramagnetic NMR
   Boris Wezisla          : Elementary symmetry handling
   Frank Wennmohs         : Technical directorship


 We gratefully acknowledge several colleagues who have allowed us to
 interface, adapt or use parts of their codes:
   Stefan Grimme, W. Hujo, H. Kruse,             : VdW corrections, initial TS optimization,
                  C. Bannwarth                     DFT functionals, gCP, sTDA/sTD-DF
   Ed Valeev, F. Pavosevic, A. Kumar             : LibInt (2-el integral package), F12 methods
   Garnet Chan, S. Sharma, J. Yang, R. Olivares  : DMRG
   Ulf Ekstrom                                   : XCFun DFT Library
   Mihaly Kallay                                 : mrcc  (arbitrary order and MRCC methods)
   Andreas Klamt, Michael Diedenhofen            : otool_cosmo (COSMO solvation model)
   Jiri Pittner, Ondrej Demel                    : Mk-CCSD
   Frank Weinhold                                : gennbo (NPA and NBO analysis)
   Christopher J. Cramer and Donald G. Truhlar   : smd solvation model
   Lars Goerigk                                  : TD-DFT with DH, B97 family of functionals
   V. Asgeirsson, H. Jonsson                     : NEB implementation
   FAccTs GmbH                                   : IRC, NEB, NEB-TS, Multilevel, MM, QM/MM, CI optimization
   S Lehtola, MJT Oliveira, MAL Marques          : LibXC Library


 Your calculation uses the libint2 library for the computation of 2-el integrals
 For citations please refer to: http://libint.valeyev.net

 Your ORCA version has been built with support for libXC version: 4.2.3
 For citations please refer to: https://tddft.org/programs/libxc/

 This ORCA versions uses:
   CBLAS   interface :  Fast vector & matrix operations
   LAPACKE interface :  Fast linear algebra routines
   SCALAPACK package :  Parallel linear algebra routines


Your calculation utilizes the atom-pairwise dispersion correction
with the Becke-Johnson damping scheme (D3BJ)
Cite in your paper:
S.Grimme, S.Ehrlich, L.Goerigk, J Comput Chem, (2011), 32, 1456–1465 
S.Grimme, J.Antony, S.Ehrlich and H.Krieg, J.Chem.Phys., 132, (2010), 154104 
   

----- Orbital basis set information -----
Your calculation utilizes the basis: def2-TZVPPD
   F. Weigend and R. Ahlrichs, Phys. Chem. Chem. Phys. 7, 3297 (2005).
   D. Rappoport and F. Furche, J. Chem. Phys. 133 134105 (2010).

----- AuxC basis set information -----
Your calculation utilizes the auxiliary basis: def2-TZVPPD/C
   A. Hellweg, C. Hattig, S. Hofener and W. Klopper, Theor. Chem. Acc. 117, 587 (2007).

----- AuxJK basis set information -----
Your calculation utilizes the auxiliary basis: def2/JK
   H-Ba, Hf-Rn: F. Weigend, J. Comput. Chem. 29, 167 (2008).

================================================================================
                                        WARNINGS
                       Please study these warnings very carefully!
================================================================================


WARNING: No MP2 level density has been requested!
         To caclulate MP2 level properties use
         %mp2 Density relaxed end
         or
         %mp2 Density unrelaxed end
         Otherwise for double-hybrid DFT only the energy is correct!

WARNING: The frozen-core approximation is turned on by default for 
         the MP2 part of double-hybrid DFT.

INFO   : the flag for use of LIBINT has been found!

================================================================================
                                       INPUT FILE
================================================================================
NAME = 180_cl.in
|  1> #
|  2> # 180_cl ri-B2PLYP-D3BJ/Def2-TZVPPD
|  3> #
|  4> ! rijk ri-b2plyp d3bj def2-tzvppd def2/jk def2-tzvppd/c grid4 nofinalgrid
|  5> 
|  6> *xyz 0 1
|  7> Cl         0.00000        0.00000        1.02399
|  8> Cl         0.00000        0.00000       -1.02399
|  9> *
| 10> 
| 11> %maxcore 5000
| 12> 
| 13> %pal
| 14> nprocs = 24
| 15> end
| 16> 
| 17> 
| 18>                          ****END OF INPUT****
================================================================================

                       ****************************
                       * Single Point Calculation *
                       ****************************

---------------------------------
CARTESIAN COORDINATES (ANGSTROEM)
---------------------------------
  Cl     0.000000    0.000000    1.023990
  Cl     0.000000    0.000000   -1.023990

----------------------------
CARTESIAN COORDINATES (A.U.)
----------------------------
  NO LB      ZA    FRAG     MASS         X           Y           Z
   0 Cl   17.0000    0    35.453    0.000000    0.000000    1.935061
   1 Cl   17.0000    0    35.453    0.000000    0.000000   -1.935061

--------------------------------
INTERNAL COORDINATES (ANGSTROEM)
--------------------------------
 Cl     0   0   0     0.000000000000     0.00000000     0.00000000
 Cl     1   0   0     2.047980000000     0.00000000     0.00000000

---------------------------
INTERNAL COORDINATES (A.U.)
---------------------------
 Cl     0   0   0     0.000000000000     0.00000000     0.00000000
 Cl     1   0   0     3.870121327748     0.00000000     0.00000000

---------------------
BASIS SET INFORMATION
---------------------
There are 1 groups of distinct atoms

 Group   1 Type Cl  : 15s10p4d1f contracted to 6s6p4d1f pattern {732111/511111/1111/1}

Atom   0Cl   basis set group =>   1
Atom   1Cl   basis set group =>   1
---------------------------------
AUXILIARY/C BASIS SET INFORMATION
---------------------------------
There are 1 groups of distinct atoms

 Group   1 Type Cl  : 12s9p8d6f2g contracted to 12s9p8d6f2g pattern {111111111111/111111111/11111111/111111/11}

Atom   0Cl   basis set group =>   1
Atom   1Cl   basis set group =>   1
----------------------------------
AUXILIARY/JK BASIS SET INFORMATION
----------------------------------
There are 1 groups of distinct atoms

 Group   1 Type Cl  : 16s12p10d4f1g contracted to 13s11p9d4f1g pattern {4111111111111/21111111111/211111111/1111/1}

Atom   0Cl   basis set group =>   1
Atom   1Cl   basis set group =>   1


           ************************************************************
           *        Program running with 24 parallel MPI-processes    *
           *              working on a common directory               *
           ************************************************************
------------------------------------------------------------------------------
                           ORCA GTO INTEGRAL CALCULATION
                           -- RI-GTO INTEGRALS CHOSEN --
------------------------------------------------------------------------------

                         BASIS SET STATISTICS AND STARTUP INFO

Gaussian basis set:
 # of primitive gaussian shells          ...   60
 # of primitive gaussian functions       ...  144
 # of contracted shells                  ...   34
 # of contracted basis functions         ...  102
 Highest angular momentum                ...    3
 Maximum contraction depth               ...    7
Auxiliary gaussian basis set:
 # of primitive gaussian shells          ...   86
 # of primitive gaussian functions       ...  278
 # of contracted shells                  ...   76
 # of contracted aux-basis functions     ...  256
 Highest angular momentum                ...    4
 Maximum contraction depth               ...    4
Ratio of auxiliary to basis functions    ...  2.51
Integral package used                  ... LIBINT
 One Electron integrals                  ... done
 Ordering auxiliary basis shells         ... done
 Integral threshhold             Thresh  ...  1.000e-10
 Primitive cut-off               TCut    ...  1.000e-11
 Pre-screening matrix                    ... done
 Shell pair data                         ... 
 Ordering of the shell pairs             ... done (   0.000 sec) 574 of 595 pairs
 Determination of significant pairs      ... done (   0.000 sec)
 Creation of shell pair data             ... done (   0.000 sec)
 Storage of shell pair data              ... done (   0.025 sec)
 Shell pair data done in (   0.025 sec)
 Computing two index integrals           ... done
 Cholesky decomposition of the V-matrix  ... done


Timings:
 Total evaluation time                   ...   0.166 sec (  0.003 min)
 One electron matrix time                ...   0.024 sec (  0.000 min) = 14.4%
 Schwartz matrix evaluation time         ...   0.093 sec (  0.002 min) = 56.1%
 Two index repulsion integral time       ...   0.001 sec (  0.000 min) =  0.6%
 Cholesky decomposition of V             ...   0.001 sec (  0.000 min) =  0.8%
 Three index repulsion integral time     ...   0.000 sec (  0.000 min) =  0.0%



           ************************************************************
           *        Program running with 24 parallel MPI-processes    *
           *              working on a common directory               *
           ************************************************************
-------------------------------------------------------------------------------
                                 ORCA SCF
-------------------------------------------------------------------------------

------------
SCF SETTINGS
------------
Hamiltonian:
 Density Functional     Method          .... DFT(GTOs)
 Exchange Functional    Exchange        .... B88
   X-Alpha parameter    XAlpha          ....  0.666667
   Becke's b parameter  XBeta           ....  0.004200
 Correlation Functional Correlation     .... LYP
 LDA part of GGA corr.  LDAOpt          .... VWN-3
 Gradients option       PostSCFGGA      .... off
 Hybrid DFT is turned on
   Fraction HF Exchange ScalHFX         ....  0.530000
   Scaling of DF-GGA-X  ScalDFX         ....  0.470000
   Scaling of DF-GGA-C  ScalDFC         ....  0.730000
   Scaling of DF-LDA-C  ScalLDAC        ....  0.730000
   Perturbative correction              ....  0.270000
   Density functional embedding theory  .... OFF
 RI-approximation to the Coulomb term is turned on
   Number of auxiliary basis functions  .... 256
   RI-JK (J+K treated both via RI)      .... on


General Settings:
 Integral files         IntName         .... 180_cl
 Hartree-Fock type      HFTyp           .... RHF
 Total Charge           Charge          ....    0
 Multiplicity           Mult            ....    1
 Number of Electrons    NEL             ....   34
 Basis Dimension        Dim             ....  102
 Nuclear Repulsion      ENuc            ....     74.6746614707 Eh

Convergence Acceleration:
 DIIS                   CNVDIIS         .... on
   Start iteration      DIISMaxIt       ....    12
   Startup error        DIISStart       ....  0.200000
   # of expansion vecs  DIISMaxEq       ....     5
   Bias factor          DIISBfac        ....   1.050
   Max. coefficient     DIISMaxC        ....  10.000
 Newton-Raphson         CNVNR           .... off
 SOSCF                  CNVSOSCF        .... on
   Start iteration      SOSCFMaxIt      ....   150
   Startup grad/error   SOSCFStart      ....  0.003300
 Level Shifting         CNVShift        .... on
   Level shift para.    LevelShift      ....    0.2500
   Turn off err/grad.   ShiftErr        ....    0.0010
 Zerner damping         CNVZerner       .... off
 Static damping         CNVDamp         .... on
   Fraction old density DampFac         ....    0.7000
   Max. Damping (<1)    DampMax         ....    0.9800
   Min. Damping (>=0)   DampMin         ....    0.0000
   Turn off err/grad.   DampErr         ....    0.1000
 Fernandez-Rico         CNVRico         .... off

SCF Procedure:
 Maximum # iterations   MaxIter         ....   125
 SCF integral mode      SCFMode         .... Direct
   Integral package                     .... LIBINT
 Reset frequency        DirectResetFreq ....    20
 Integral Threshold     Thresh          ....  1.000e-10 Eh
 Primitive CutOff       TCut            ....  1.000e-11 Eh

Convergence Tolerance:
 Convergence Check Mode ConvCheckMode   .... Total+1el-Energy
 Convergence forced     ConvForced      .... 0
 Energy Change          TolE            ....  1.000e-06 Eh
 1-El. energy change                    ....  1.000e-03 Eh
 Orbital Gradient       TolG            ....  5.000e-05
 Orbital Rotation angle TolX            ....  5.000e-05
 DIIS Error             TolErr          ....  1.000e-06


Diagonalization of the overlap matrix:
Smallest eigenvalue                        ... 2.001e-03
Time for diagonalization                   ...    0.002 sec
Threshold for overlap eigenvalues          ... 1.000e-08
Number of eigenvalues below threshold      ... 0
Time for construction of square roots      ...    0.002 sec
Total time needed                          ...    0.004 sec

-------------------
DFT GRID GENERATION
-------------------

General Integration Accuracy     IntAcc      ...  4.670
Radial Grid Type                 RadialGrid  ... Gauss-Chebyshev
Angular Grid (max. acc.)         AngularGrid ... Lebedev-302
Angular grid pruning method      GridPruning ... 3 (G Style)
Weight generation scheme         WeightScheme... Becke
Basis function cutoff            BFCut       ...    1.0000e-10
Integration weight cutoff        WCut        ...    1.0000e-14
Grids for H and He will be reduced by one unit

# of grid points (after initial pruning)     ...  13476 (   0.0 sec)
# of grid points (after weights+screening)   ...  13450 (   0.0 sec)
nearest neighbour list constructed           ...    0.0 sec
Grid point re-assignment to atoms done       ...    0.0 sec
Grid point division into batches done        ...    0.1 sec
Reduced shell lists constructed in    0.1 sec

Total number of grid points                  ...    13450
Total number of batches                      ...      212
Average number of points per batch           ...       63
Average number of grid points per atom       ...     6725
Average number of shells per batch           ...     6.60 (19.41%)
Average number of basis functions per batch  ...    19.60 (19.22%)
Average number of large shells per batch     ...     4.50 (68.18%)
Average number of large basis fcns per batch ...    13.10 (66.84%)
Average number of aux-shells per batch       ...     6.60 ( 8.68%)
Average number of aux functions per batch    ...    19.60 ( 7.66%)
Maximum spatial batch extension              ...  19.50, 19.55, 12.87 au
Average spatial batch extension              ...   0.66,  0.66,  0.47 au

Time for grid setup =    0.120 sec

------------------------------
INITIAL GUESS: MODEL POTENTIAL
------------------------------
Loading Hartree-Fock densities                     ... done
Calculating cut-offs                               ... done
Setting up the integral package                    ... done
Initializing the effective Hamiltonian             ... done
Starting the Coulomb interaction                   ... done (   0.0 sec)
Reading the grid                                   ... done
Mapping shells                                     ... done
Starting the XC term evaluation                    ... done (   0.0 sec)
  promolecular density results
     # of electrons  =     33.999988380
     EX              =    -55.028337976
     EC              =     -0.504552763
     EX+EC           =    -55.532890739
Transforming the Hamiltonian                       ... done (   0.0 sec)
Diagonalizing the Hamiltonian                      ... done (   0.0 sec)
Back transforming the eigenvectors                 ... done (   0.0 sec)
Now organizing SCF variables                       ... done
                      ------------------
                      INITIAL GUESS DONE (   0.2 sec)
                      ------------------
--------------
SCF ITERATIONS
--------------
ITER       Energy         Delta-E        Max-DP      RMS-DP      [F,P]     Damp
  0   -919.9955091443   0.000000000000 0.01241095  0.00036682  0.0606386 0.7000
  1   -920.0064668982  -0.010957753852 0.01209351  0.00033656  0.0454628 0.7000
                               ***Turning on DIIS***
  2   -920.0070671966  -0.000600298469 0.03053210  0.00082596  0.0317628 0.0000
  3   -920.0063314143   0.000735782328 0.00414100  0.00016928  0.0080343 0.0000
  4   -920.0065334512  -0.000202036935 0.00088765  0.00003215  0.0036084 0.0000
                      *** Initiating the SOSCF procedure ***
                           *** Shutting down DIIS ***
                      *** Re-Reading the Fockian *** 
                      *** Removing any level shift *** 
ITER      Energy       Delta-E        Grad      Rot      Max-DP    RMS-DP
  5   -920.00654415  -0.0000107009  0.000252  0.000252  0.000285  0.000013
                 **** Energy Check signals convergence ****
              ***Rediagonalizing the Fockian in SOSCF/NRSCF***

               *****************************************************
               *                     SUCCESS                       *
               *           SCF CONVERGED AFTER   6 CYCLES          *
               *****************************************************


----------------
TOTAL SCF ENERGY
----------------

Total Energy       :         -920.00654480 Eh          -25034.65082 eV

Components:
Nuclear Repulsion  :           74.67466147 Eh            2032.00084 eV
Electronic Energy  :         -994.68120627 Eh          -27066.65166 eV
One Electron Energy:        -1418.82834258 Eh          -38608.28201 eV
Two Electron Energy:          424.14713631 Eh           11541.63034 eV

Virial components:
Potential Energy   :        -1839.01323298 Eh          -50042.09416 eV
Kinetic Energy     :          919.00668817 Eh           25007.44334 eV
Virial Ratio       :            2.00108798


DFT components:
N(Alpha)           :       16.999995319473 electrons
N(Beta)            :       16.999995319473 electrons
N(Total)           :       33.999990638946 electrons
E(X)               :      -25.872013489461 Eh       
E(C)               :       -1.031231543321 Eh       
E(XC)              :      -26.903245032782 Eh       
DFET-embed. en.    :        0.000000000000 Eh       

---------------
SCF CONVERGENCE
---------------

  Last Energy change         ...   -6.5002e-07  Tolerance :   1.0000e-06
  Last MAX-Density change    ...    4.0014e-05  Tolerance :   1.0000e-05
  Last RMS-Density change    ...    2.2445e-06  Tolerance :   1.0000e-06
  Last Orbital Gradient      ...    4.2248e-05  Tolerance :   5.0000e-05
  Last Orbital Rotation      ...    5.2702e-05  Tolerance :   5.0000e-05

             **** THE GBW FILE WAS UPDATED (180_cl.gbw) ****
             **** DENSITY FILE WAS UPDATED (180_cl.scfp) ****
             **** ENERGY FILE WAS UPDATED (180_cl.en.tmp) ****
             **** THE GBW FILE WAS UPDATED (180_cl.gbw) ****
             **** DENSITY FILE WAS UPDATED (180_cl.scfp) ****
----------------
ORBITAL ENERGIES
----------------

  NO   OCC          E(Eh)            E(eV) 
   0   2.0000    -102.971903     -2802.0079 
   1   2.0000    -102.971898     -2802.0078 
   2   2.0000      -9.973269      -271.3864 
   3   2.0000      -9.973191      -271.3843 
   4   2.0000      -7.614970      -207.2139 
   5   2.0000      -7.614829      -207.2100 
   6   2.0000      -7.605804      -206.9644 
   7   2.0000      -7.605804      -206.9644 
   8   2.0000      -7.605804      -206.9644 
   9   2.0000      -7.605804      -206.9644 
  10   2.0000      -1.042344       -28.3636 
  11   2.0000      -0.881001       -23.9733 
  12   2.0000      -0.520600       -14.1663 
  13   2.0000      -0.472924       -12.8689 
  14   2.0000      -0.472924       -12.8689 
  15   2.0000      -0.371903       -10.1200 
  16   2.0000      -0.371903       -10.1200 
  17   0.0000      -0.079333        -2.1587 
  18   0.0000       0.051319         1.3965 
  19   0.0000       0.066611         1.8126 
  20   0.0000       0.067176         1.8280 
  21   0.0000       0.067176         1.8280 
  22   0.0000       0.085556         2.3281 
  23   0.0000       0.093020         2.5312 
  24   0.0000       0.093020         2.5312 
  25   0.0000       0.176915         4.8141 
  26   0.0000       0.176916         4.8141 
  27   0.0000       0.214642         5.8407 
  28   0.0000       0.214642         5.8407 
  29   0.0000       0.219261         5.9664 
  30   0.0000       0.275919         7.5081 
  31   0.0000       0.275921         7.5082 
  32   0.0000       0.281555         7.6615 
  33   0.0000       0.297291         8.0897 
  34   0.0000       0.333187         9.0665 
  35   0.0000       0.333187         9.0665 
  36   0.0000       0.493450        13.4275 
  37   0.0000       0.493450        13.4275 
  38   0.0000       0.545076        14.8323 
  39   0.0000       0.557429        15.1684 
  40   0.0000       0.557429        15.1684 
  41   0.0000       0.617757        16.8100 
  42   0.0000       0.617761        16.8101 
  43   0.0000       0.640844        17.4382 
  44   0.0000       0.640844        17.4382 
  45   0.0000       0.669691        18.2232 
  46   0.0000       0.669693        18.2233 
  47   0.0000       0.671643        18.2763 
  48   0.0000       0.730869        19.8880 
  49   0.0000       0.751936        20.4612 
  50   0.0000       0.751936        20.4612 
  51   0.0000       0.822264        22.3749 
  52   0.0000       0.915369        24.9084 
  53   0.0000       1.354973        36.8707 
  54   0.0000       1.887341        51.3572 
  55   0.0000       1.887341        51.3572 
  56   0.0000       1.926925        52.4343 
  57   0.0000       1.926926        52.4343 
  58   0.0000       1.974729        53.7351 
  59   0.0000       2.017216        54.8912 
  60   0.0000       2.017216        54.8912 
  61   0.0000       2.018318        54.9212 
  62   0.0000       2.018727        54.9324 
  63   0.0000       2.018736        54.9326 
  64   0.0000       2.047472        55.7145 
  65   0.0000       2.047472        55.7145 
  66   0.0000       2.075016        56.4641 
  67   0.0000       2.075019        56.4641 
  68   0.0000       2.169286        59.0293 
  69   0.0000       2.169286        59.0293 
  70   0.0000       2.202742        59.9397 
  71   0.0000       2.202742        59.9397 
  72   0.0000       2.318241        63.0825 
  73   0.0000       2.318253        63.0829 
  74   0.0000       2.370061        64.4926 
  75   0.0000       2.370061        64.4926 
  76   0.0000       2.379102        64.7386 
  77   0.0000       2.432955        66.2041 
  78   0.0000       2.446430        66.5707 
  79   0.0000       2.446430        66.5707 
  80   0.0000       2.505494        68.1779 
  81   0.0000       2.815317        76.6087 
  82   0.0000       2.815317        76.6087 
  83   0.0000       3.836845       104.4058 
  84   0.0000       8.310238       226.1331 
  85   0.0000       8.310283       226.1343 
  86   0.0000       8.333048       226.7538 
  87   0.0000       8.333048       226.7538 
  88   0.0000       8.346593       227.1223 
  89   0.0000       8.346637       227.1235 
  90   0.0000       8.365222       227.6293 
  91   0.0000       8.373097       227.8436 
  92   0.0000       8.373097       227.8436 
  93   0.0000       8.484733       230.8813 
  94   0.0000      10.974561       298.6330 
  95   0.0000      10.974561       298.6330 
  96   0.0000      11.091088       301.8039 
  97   0.0000      11.091088       301.8039 
  98   0.0000      11.111365       302.3556 
  99   0.0000      11.523781       313.5780 
 100   0.0000      24.907910       677.7787 
 101   0.0000      25.568774       695.7617 

                    ********************************
                    * MULLIKEN POPULATION ANALYSIS *
                    ********************************

-----------------------
MULLIKEN ATOMIC CHARGES
-----------------------
   0 Cl:    0.000000
   1 Cl:   -0.000000
Sum of atomic charges:   -0.0000000

--------------------------------
MULLIKEN REDUCED ORBITAL CHARGES
--------------------------------
  0 Cls       :     5.974411  s :     5.974411
      pz      :     2.993913  p :    10.951871
      px      :     3.978979
      py      :     3.978979
      dz2     :     0.028654  d :     0.067936
      dxz     :     0.019641
      dyz     :     0.019641
      dx2y2   :     0.000000
      dxy     :     0.000000
      f0      :     0.003022  f :     0.005782
      f+1     :     0.001380
      f-1     :     0.001380
      f+2     :     0.000000
      f-2     :     0.000000
      f+3     :     0.000000
      f-3     :     0.000000
  1 Cls       :     5.974411  s :     5.974411
      pz      :     2.993913  p :    10.951871
      px      :     3.978979
      py      :     3.978979
      dz2     :     0.028654  d :     0.067936
      dxz     :     0.019641
      dyz     :     0.019641
      dx2y2   :     0.000000
      dxy     :     0.000000
      f0      :     0.003022  f :     0.005782
      f+1     :     0.001380
      f-1     :     0.001380
      f+2     :     0.000000
      f-2     :     0.000000
      f+3     :     0.000000
      f-3     :     0.000000


                     *******************************
                     * LOEWDIN POPULATION ANALYSIS *
                     *******************************

----------------------
LOEWDIN ATOMIC CHARGES
----------------------
   0 Cl:    0.000000
   1 Cl:   -0.000000

-------------------------------
LOEWDIN REDUCED ORBITAL CHARGES
-------------------------------
  0 Cls       :     5.715467  s :     5.715467
      pz      :     3.115625  p :    10.897927
      px      :     3.891151
      py      :     3.891151
      dz2     :     0.161844  d :     0.373075
      dxz     :     0.105615
      dyz     :     0.105615
      dx2y2   :     0.000000
      dxy     :     0.000000
      f0      :     0.007064  f :     0.013531
      f+1     :     0.003234
      f-1     :     0.003234
      f+2     :     0.000000
      f-2     :     0.000000
      f+3     :     0.000000
      f-3     :     0.000000
  1 Cls       :     5.715467  s :     5.715467
      pz      :     3.115625  p :    10.897927
      px      :     3.891151
      py      :     3.891151
      dz2     :     0.161844  d :     0.373075
      dxz     :     0.105615
      dyz     :     0.105615
      dx2y2   :     0.000000
      dxy     :     0.000000
      f0      :     0.007064  f :     0.013531
      f+1     :     0.003234
      f-1     :     0.003234
      f+2     :     0.000000
      f-2     :     0.000000
      f+3     :     0.000000
      f-3     :     0.000000


                      *****************************
                      * MAYER POPULATION ANALYSIS *
                      *****************************

  NA   - Mulliken gross atomic population
  ZA   - Total nuclear charge
  QA   - Mulliken gross atomic charge
  VA   - Mayer's total valence
  BVA  - Mayer's bonded valence
  FA   - Mayer's free valence

  ATOM       NA         ZA         QA         VA         BVA        FA
  0 Cl    17.0000    17.0000     0.0000     1.0153     1.0153    -0.0000
  1 Cl    17.0000    17.0000    -0.0000     1.0153     1.0153    -0.0000

  Mayer bond orders larger than 0.100000
B(  0-Cl,  1-Cl) :   1.0153 

-------
TIMINGS
-------

Total SCF time: 0 days 0 hours 0 min 1 sec 

Total time                  ....       1.111 sec
Sum of individual times     ....       1.013 sec  ( 91.2%)

Fock matrix formation       ....       0.771 sec  ( 69.3%)
  XC integration            ....       0.058 sec  (  7.5% of F)
    Basis function eval.    ....       0.008 sec  ( 13.0% of XC)
    Density eval.           ....       0.004 sec  (  7.6% of XC)
    XC-Functional eval.     ....       0.003 sec  (  5.0% of XC)
    XC-Potential eval.      ....       0.008 sec  ( 14.0% of XC)
Diagonalization             ....       0.008 sec  (  0.7%)
Density matrix formation    ....       0.002 sec  (  0.2%)
Population analysis         ....       0.003 sec  (  0.2%)
Initial guess               ....       0.105 sec  (  9.5%)
Orbital Transformation      ....       0.000 sec  (  0.0%)
Orbital Orthonormalization  ....       0.000 sec  (  0.0%)
DIIS solution               ....       0.003 sec  (  0.3%)
SOSCF solution              ....       0.001 sec  (  0.1%)
Grid generation             ....       0.120 sec  ( 10.8%)


           ************************************************************
           *        Program running with 24 parallel MPI-processes    *
           *              working on a common directory               *
           ************************************************************

------------------------------------------------------------------------------
                                ORCA  MP2 
------------------------------------------------------------------------------

Freezing NCore=20 chemical core electrons

-------------
RI-MP2 ENERGY
-------------
Dimension of the basis                    ...  102
Memory devoted to MP2                     ... 5000 MB   
Data format for buffers                   ... DOUBLE
Compression type for matrix containers    ... UNCOMPRESSED
Overall scaling of the MP2 energy         ...   2.700e-01
Calculating two index integrals           ... done (    0.002 sec)
Cholesky decomposition of V**-1           ... done (    0.011 sec)

-----------------
RI-TRANSFORMATION (AUX index driven)
-----------------

Dimension of the orbital-basis         ... 102
Dimension of the aux-basis             ... 278
Transformation of internal/external MOs...   10-  16 to   17- 101
Number Format for Storage              ... Double (8 Byte)
Integral mode                          ... Direct

First Phase: integral generation and transformation of MO indices
  Aux angular momentum 0               ... done (    0.000 sec)
  Aux angular momentum 1               ... done (    0.001 sec)
  Aux angular momentum 2               ... done (    0.001 sec)
  Aux angular momentum 3               ... done (    0.001 sec)
  Aux angular momentum 4               ... done (    0.001 sec)
Closing buffer VIA ( 0.00 GB; CompressionRatio= 1.00)
  Phase 1 completed in     0.077 sec
Second Phase: sorting and transformation of aux index

IA-Transformation
Memory available                       ... 4999 MB 
Max. # MO pairs treated in a batch     ... 1    
# of internal orbitals                 ... 7
# batches for internal orbitals        ... 1
Closing buffer IAV ( 0.00 GB; CompressionRatio= 1.00)
(ia|v) transformation done in     0.002 sec

  Phase 2 completed in     0.005 sec
RI-Integral transformation completed in     0.083 sec
Opening buffers                              ... done

Starting loop over batches of integrals:

Operator 0  - window                       ... ( 10- 16)x( 17-101)
Operator 0  - Memory available             ...  5000 MB
Operator 0  - Memory needed per MO         ...   0.2 MB
Operator 0  - Number of orbitals per batch ... 1
Operator 0  - Number of batches            ... 1

OPERATOR  0   PASS   0:  MOs    10 ...   10 +   11 ...   11 +   12 ...   12 +   13 ...   13
                            +   14 ...   14 +   15 ...   15 +   16 ...   16
  Reading integrals       ... ok
Time spent in pair loops =     0.001 sec
Deleting buffer (Ka|jb)[aa] ...done

-----------------------------------------------
 RI-MP2 CORRELATION ENERGY:     -0.126802409 Eh
-----------------------------------------------


-------
TIMINGS
-------

Total time                :    0.117 sec
Integral trafo            :    0.101 sec ( 86.8%)
I/O of integrals          :    0.000 sec (  0.1%)
K(i,j) Operators          :    0.000 sec (  0.1%)
T(i,j) pair energies      :    0.000 sec (  0.1%)
V-calculation             :    0.002 sec (  1.5%)
V**(-1/2)                 :    0.011 sec (  9.0%)
Gamma(ia|P)               :    0.000 sec (  0.0%)
Gamma-Trafo               :    0.000 sec (  0.0%)
D(virtual)                :    0.000 sec (  0.0%)
D(internal)               :    0.000 sec (  0.0%)
W(virtual)                :    0.000 sec (  0.0%)
W(internal)               :    0.000 sec (  0.0%)
L(virtual)                :    0.000 sec (  0.0%)
L(internal)               :    0.000 sec (  0.0%)
G(D)                      :    0.000 sec (  0.0%)
G(Z)                      :    0.000 sec (  0.0%)
Z-Vector Solution         :    0.000 sec (  0.0%)
Z-Vector Solution         :    0.000 sec (  0.0%)
3-Index Derivative 
+ Separable RIJ part      :    0.000 sec (  0.0%)
2-Index Derivative 
+ Separable RIJ part      :    0.000 sec (  0.0%)
Separable Gradient (X)    :    0.000 sec (  0.0%)


---------------------------------------
MP2 TOTAL ENERGY:     -920.133347211 Eh
---------------------------------------


-------------------------------------------------------------------------------
                          DFT DISPERSION CORRECTION                            
                                                                               
                              DFTD3 V3.1  Rev 1                                
                          USING Becke-Johnson damping                          
-------------------------------------------------------------------------------
The B2PLYP functional is recognized
Active option DFTDOPT                   ...         4   

molecular C6(AA) [au] = 361.744334 


            DFT-D V3
 parameters
 s6 scaling factor         :     0.6400 
 a1 scaling factor         :     0.3065 
 s8 scaling factor         :     0.9147 
 a2 scaling factor         :     5.0570 
 ad hoc parameters k1-k3   :    16.0000     1.3333    -4.0000 

 Edisp/kcal,au: -0.648368300959  -0.001033240546 
 E6   /kcal   :  -0.291095198 
 E8   /kcal   :  -0.357273103 
 % E8         :  55.103419253 

-------------------------   ----------------
Dispersion correction           -0.001033241
-------------------------   ----------------


-------------------------   --------------------
FINAL SINGLE POINT ENERGY      -920.134380451216
-------------------------   --------------------


                            ***************************************
                            *     ORCA property calculations      *
                            ***************************************


  WARNING: The energy has been calculated at the MP2 level but the densities
           used in the property calculations are still SCF densities
           MP2 response densities have not been calculated 
           use %mp2 Density relaxed end
           or  %mp2 Density unrelaxed end

                                    ---------------------
                                    Active property flags
                                    ---------------------
   (+) Dipole Moment


------------------------------------------------------------------------------
                       ORCA ELECTRIC PROPERTIES CALCULATION
------------------------------------------------------------------------------

Dipole Moment Calculation                       ... on
Quadrupole Moment Calculation                   ... off
Polarizability Calculation                      ... off
GBWName                                         ... 180_cl.gbw
Electron density file                           ... 180_cl.scfp
The origin for moment calculation is the CENTER OF MASS  = ( 0.000000,  0.000000  0.000000)

-------------
DIPOLE MOMENT
-------------
                                X             Y             Z
Electronic contribution:      0.00000      -0.00000      -0.00000
Nuclear contribution   :      0.00000       0.00000       0.00000
                        -----------------------------------------
Total Dipole Moment    :      0.00000      -0.00000      -0.00000
                        -----------------------------------------
Magnitude (a.u.)       :      0.00000
Magnitude (Debye)      :      0.00000



--------------------
Rotational spectrum 
--------------------
 
Rotational constants in cm-1:     0.000000     0.226737     0.226737 
Rotational constants in MHz :     0.000000  6797.405627  6797.405627 

 Dipole components along the rotational axes: 
x,y,z [a.u.] :    -0.000000    -0.000000     0.000000 
x,y,z [Debye]:    -0.000000    -0.000000     0.000000 

 

Timings for individual modules:

Sum of individual times         ...        2.525 sec (=   0.042 min)
GTO integral calculation        ...        0.540 sec (=   0.009 min)  21.4 %
SCF iterations                  ...        1.421 sec (=   0.024 min)  56.3 %
MP2 module                      ...        0.564 sec (=   0.009 min)  22.3 %
                             ****ORCA TERMINATED NORMALLY****
TOTAL RUN TIME: 0 days 0 hours 0 minutes 2 seconds 991 msec
