
                                 *****************
                                 * O   R   C   A *
                                 *****************

           --- An Ab Initio, DFT and Semiempirical electronic structure package ---

                  #######################################################
                  #                        -***-                        #
                  #          Department of theory and spectroscopy      #
                  #               Directorship: Frank Neese             #
                  #        Max Planck Institute fuer Kohlenforschung    #
                  #                Kaiser Wilhelm Platz 1               #
                  #                 D-45470 Muelheim/Ruhr               #
                  #                      Germany                        #
                  #                                                     #
                  #                  All rights reserved                #
                  #                        -***-                        #
                  #######################################################


                         Program Version 4.2.0 -  RELEASE  -


 With contributions from (in alphabetic order):
   Daniel Aravena         : Magnetic Suceptibility
   Michael Atanasov       : Ab Initio Ligand Field Theory (pilot matlab implementation)
   Alexander A. Auer      : GIAO ZORA, VPT2
   Ute Becker             : Parallelization
   Giovanni Bistoni       : ED, misc. LED, open-shell LED, HFLED
   Martin Brehm           : Molecular dynamics
   Dmytro Bykov           : SCF Hessian
   Vijay G. Chilkuri      : MRCI spin determinant printing, contributions to CSF-ICE
   Dipayan Datta          : RHF DLPNO-CCSD density
   Achintya Kumar Dutta   : EOM-CC, STEOM-CC
   Dmitry Ganyushin       : Spin-Orbit,Spin-Spin,Magnetic field MRCI
   Miquel Garcia          : C-PCM Hessian, Gaussian charge scheme
   Yang Guo               : DLPNO-NEVPT2, CIM, IAO-localization
   Andreas Hansen         : Spin unrestricted coupled pair/coupled cluster methods
   Benjamin Helmich-Paris : CASSCF linear response (MC-RPA)
   Lee Huntington         : MR-EOM, pCC
   Robert Izsak           : Overlap fitted RIJCOSX, COSX-SCS-MP3, EOM
   Christian Kollmar      : KDIIS, OOCD, Brueckner-CCSD(T), CCSD density
   Simone Kossmann        : Meta GGA functionals, TD-DFT gradient, OOMP2, MP2 Hessian
   Martin Krupicka        : AUTO-CI
   Lucas Lang             : DCDCAS
   Dagmar Lenk            : GEPOL surface, SMD
   Dimitrios Liakos       : Extrapolation schemes; Compound Job, initial MDCI parallelization
   Dimitrios Manganas     : Further ROCIS development; embedding schemes
   Dimitrios Pantazis     : SARC Basis sets
   Taras Petrenko         : DFT Hessian,TD-DFT gradient, ASA, ECA, R-Raman, ABS, FL, XAS/XES, NRVS
   Peter Pinski           : DLPNO-MP2, DLPNO-MP2 Gradient
   Christoph Reimann      : Effective Core Potentials
   Marius Retegan         : Local ZFS, SOC
   Christoph Riplinger    : Optimizer, TS searches, QM/MM, DLPNO-CCSD(T), (RO)-DLPNO pert. Triples
   Tobias Risthaus        : Range-separated hybrids, TD-DFT gradient, RPA, STAB
   Michael Roemelt        : Original ROCIS implementation
   Masaaki Saitow         : Open-shell DLPNO-CCSD energy and density
   Barbara Sandhoefer     : DKH picture change effects
   Avijit Sen             : IP-ROCIS
   Kantharuban Sivalingam : CASSCF convergence, NEVPT2, FIC-MRCI
   Bernardo de Souza      : ESD, SOC TD-DFT
   Georgi Stoychev        : AutoAux, RI-MP2 NMR
   Willem Van den Heuvel  : Paramagnetic NMR
   Boris Wezisla          : Elementary symmetry handling
   Frank Wennmohs         : Technical directorship


 We gratefully acknowledge several colleagues who have allowed us to
 interface, adapt or use parts of their codes:
   Stefan Grimme, W. Hujo, H. Kruse,             : VdW corrections, initial TS optimization,
                  C. Bannwarth                     DFT functionals, gCP, sTDA/sTD-DF
   Ed Valeev, F. Pavosevic, A. Kumar             : LibInt (2-el integral package), F12 methods
   Garnet Chan, S. Sharma, J. Yang, R. Olivares  : DMRG
   Ulf Ekstrom                                   : XCFun DFT Library
   Mihaly Kallay                                 : mrcc  (arbitrary order and MRCC methods)
   Andreas Klamt, Michael Diedenhofen            : otool_cosmo (COSMO solvation model)
   Jiri Pittner, Ondrej Demel                    : Mk-CCSD
   Frank Weinhold                                : gennbo (NPA and NBO analysis)
   Christopher J. Cramer and Donald G. Truhlar   : smd solvation model
   Lars Goerigk                                  : TD-DFT with DH, B97 family of functionals
   V. Asgeirsson, H. Jonsson                     : NEB implementation
   FAccTs GmbH                                   : IRC, NEB, NEB-TS, Multilevel, MM, QM/MM, CI optimization
   S Lehtola, MJT Oliveira, MAL Marques          : LibXC Library


 Your calculation uses the libint2 library for the computation of 2-el integrals
 For citations please refer to: http://libint.valeyev.net

 Your ORCA version has been built with support for libXC version: 4.2.3
 For citations please refer to: https://tddft.org/programs/libxc/

 This ORCA versions uses:
   CBLAS   interface :  Fast vector & matrix operations
   LAPACKE interface :  Fast linear algebra routines
   SCALAPACK package :  Parallel linear algebra routines


Your calculation utilizes the atom-pairwise dispersion correction
with the Becke-Johnson damping scheme (D3BJ)
Cite in your paper:
S.Grimme, S.Ehrlich, L.Goerigk, J Comput Chem, (2011), 32, 1456–1465 
S.Grimme, J.Antony, S.Ehrlich and H.Krieg, J.Chem.Phys., 132, (2010), 154104 
   

----- Orbital basis set information -----
Your calculation utilizes the basis: def2-TZVPPD
   F. Weigend and R. Ahlrichs, Phys. Chem. Chem. Phys. 7, 3297 (2005).
   D. Rappoport and F. Furche, J. Chem. Phys. 133 134105 (2010).

----- AuxJK basis set information -----
Your calculation utilizes the auxiliary basis: def2/JK
   H-Ba, Hf-Rn: F. Weigend, J. Comput. Chem. 29, 167 (2008).

================================================================================
                                        WARNINGS
                       Please study these warnings very carefully!
================================================================================


INFO   : the flag for use of LIBINT has been found!

================================================================================
                                       INPUT FILE
================================================================================
NAME = 048.in
|  1> #
|  2> # 048 TPSSh-D3BJ/Def2-TZVPPD
|  3> #
|  4> ! tpssh d3bj def2-tzvppd def2/jk grid4 nofinalgrid
|  5> 
|  6> *xyz 0 1
|  7> O          0.75742       -0.00510        0.75514
|  8> H         -1.01794        1.02757        1.02184
|  9> H         -0.96093       -0.60735        1.74144
| 10> C         -0.64191        0.00049        0.87802
| 11> H          0.38038        0.00572       -2.17342
| 12> H          0.12624       -0.00672       -2.88156
| 13> Al         2.47079       -0.00043        0.68709
| 14> H         -1.11404       -0.41418       -0.02857
| 15> *
| 16> 
| 17> %maxcore 5000
| 18> 
| 19> %pal
| 20> nprocs = 24
| 21> end
| 22> 
| 23> 
| 24>                          ****END OF INPUT****
================================================================================

                       ****************************
                       * Single Point Calculation *
                       ****************************

---------------------------------
CARTESIAN COORDINATES (ANGSTROEM)
---------------------------------
  O      0.757420   -0.005100    0.755140
  H     -1.017940    1.027570    1.021840
  H     -0.960930   -0.607350    1.741440
  C     -0.641910    0.000490    0.878020
  H      0.380380    0.005720   -2.173420
  H      0.126240   -0.006720   -2.881560
  Al     2.470790   -0.000430    0.687090
  H     -1.114040   -0.414180   -0.028570

----------------------------
CARTESIAN COORDINATES (A.U.)
----------------------------
  NO LB      ZA    FRAG     MASS         X           Y           Z
   0 O     8.0000    0    15.999    1.431316   -0.009638    1.427008
   1 H     1.0000    0     1.008   -1.923628    1.941826    1.930998
   2 H     1.0000    0     1.008   -1.815895   -1.147725    3.290845
   3 C     6.0000    0    12.011   -1.213034    0.000926    1.659217
   4 H     1.0000    0     1.008    0.718814    0.010809   -4.107169
   5 H     1.0000    0     1.008    0.238559   -0.012699   -5.445359
   6 Al   13.0000    0    26.982    4.669116   -0.000813    1.298412
   7 H     1.0000    0     1.008   -2.105231   -0.782687   -0.053989

--------------------------------
INTERNAL COORDINATES (ANGSTROEM)
--------------------------------
 O      0   0   0     0.000000000000     0.00000000     0.00000000
 H      1   0   0     2.071096170751     0.00000000     0.00000000
 H      2   1   0     1.787187093312    64.42933202     0.00000000
 C      3   2   1     1.103058168185    35.89967210   323.20979122
 H      1   2   3     2.952751243772    90.94155429   117.31376937
 H      5   1   2     0.752465383124   167.54060729   324.73475262
 Al     1   2   3     1.714727199382   149.34824790   218.89732579
 H      4   3   2     1.103069976883   108.20309272   243.05990816

---------------------------
INTERNAL COORDINATES (A.U.)
---------------------------
 O      0   0   0     0.000000000000     0.00000000     0.00000000
 H      1   0   0     3.913804559733     0.00000000     0.00000000
 H      2   1   0     3.377294156438    64.42933202     0.00000000
 C      3   2   1     2.084477847655    35.89967210   323.20979122
 H      1   2   3     5.579891192325    90.94155429   117.31376937
 H      5   1   2     1.421953499361   167.54060729   324.73475262
 Al     1   2   3     3.240364801218   149.34824790   218.89732579
 H      4   3   2     2.084500162859   108.20309272   243.05990816

---------------------
BASIS SET INFORMATION
---------------------
There are 4 groups of distinct atoms

 Group   1 Type O   : 12s7p3d1f contracted to 6s4p3d1f pattern {621111/4111/111/1}
 Group   2 Type H   : 5s3p1d contracted to 3s3p1d pattern {311/111/1}
 Group   3 Type C   : 12s6p3d1f contracted to 6s3p3d1f pattern {621111/411/111/1}
 Group   4 Type Al  : 15s9p4d1f contracted to 6s5p4d1f pattern {732111/51111/1111/1}

Atom   0O    basis set group =>   1
Atom   1H    basis set group =>   2
Atom   2H    basis set group =>   2
Atom   3C    basis set group =>   3
Atom   4H    basis set group =>   2
Atom   5H    basis set group =>   2
Atom   6Al   basis set group =>   4
Atom   7H    basis set group =>   2
----------------------------------
AUXILIARY/JK BASIS SET INFORMATION
----------------------------------
There are 4 groups of distinct atoms

 Group   1 Type O   : 14s10p6d2f1g contracted to 10s8p4d2f1g pattern {5111111111/31111111/3111/11/1}
 Group   2 Type H   : 4s2p2d contracted to 2s2p2d pattern {31/11/11}
 Group   3 Type C   : 14s10p6d2f1g contracted to 10s8p5d1f1g pattern {5111111111/31111111/21111/2/1}
 Group   4 Type Al  : 16s12p10d4f1g contracted to 13s11p9d4f1g pattern {4111111111111/21111111111/211111111/1111/1}

Atom   0O    basis set group =>   1
Atom   1H    basis set group =>   2
Atom   2H    basis set group =>   2
Atom   3C    basis set group =>   3
Atom   4H    basis set group =>   2
Atom   5H    basis set group =>   2
Atom   6Al   basis set group =>   4
Atom   7H    basis set group =>   2


           ************************************************************
           *        Program running with 24 parallel MPI-processes    *
           *              working on a common directory               *
           ************************************************************
------------------------------------------------------------------------------
                           ORCA GTO INTEGRAL CALCULATION
------------------------------------------------------------------------------

                         BASIS SET STATISTICS AND STARTUP INFO

 # of primitive gaussian shells          ...  119
 # of primitive gaussian functions       ...  271
 # of contracted shells                  ...   78
 # of contracted basis functions         ...  210
 Highest angular momentum                ...    3
 Maximum contraction depth               ...    7
 Integral package used                   ... LIBINT
 Integral threshhold            Thresh   ...  1.000e-10
 Primitive cut-off              TCut     ...  1.000e-11


------------------------------ INTEGRAL EVALUATION ----------------------------


 * One electron integrals 
 Pre-screening matrix                    ... done
 Shell pair data                         ... done (   0.001 sec)



           ************************************************************
           *        Program running with 24 parallel MPI-processes    *
           *              working on a common directory               *
           ************************************************************
-------------------------------------------------------------------------------
                                 ORCA SCF
-------------------------------------------------------------------------------

------------
SCF SETTINGS
------------
Hamiltonian:
 Density Functional     Method          .... DFT(GTOs)
 Exchange Functional    Exchange        .... TPSS
 Correlation Functional Correlation     .... TPSS
 LDA part of GGA corr.  LDAOpt          .... PW91-LDA
 Gradients option       PostSCFGGA      .... off
 Hybrid DFT is turned on
   Fraction HF Exchange ScalHFX         ....  0.100000
   Scaling of DF-GGA-X  ScalDFX         ....  0.900000
   Scaling of DF-GGA-C  ScalDFC         ....  1.000000
   Scaling of DF-LDA-C  ScalLDAC        ....  1.000000
   Perturbative correction              ....  0.000000
   Density functional embedding theory  .... OFF
   NL short-range parameter             ....  5.200000


General Settings:
 Integral files         IntName         .... 048
 Hartree-Fock type      HFTyp           .... RHF
 Total Charge           Charge          ....    0
 Multiplicity           Mult            ....    1
 Number of Electrons    NEL             ....   32
 Basis Dimension        Dim             ....  210
 Nuclear Repulsion      ENuc            ....     94.2408931544 Eh

Convergence Acceleration:
 DIIS                   CNVDIIS         .... on
   Start iteration      DIISMaxIt       ....    12
   Startup error        DIISStart       ....  0.200000
   # of expansion vecs  DIISMaxEq       ....     5
   Bias factor          DIISBfac        ....   1.050
   Max. coefficient     DIISMaxC        ....  10.000
 Newton-Raphson         CNVNR           .... off
 SOSCF                  CNVSOSCF        .... on
   Start iteration      SOSCFMaxIt      ....   150
   Startup grad/error   SOSCFStart      ....  0.003300
 Level Shifting         CNVShift        .... on
   Level shift para.    LevelShift      ....    0.2500
   Turn off err/grad.   ShiftErr        ....    0.0010
 Zerner damping         CNVZerner       .... off
 Static damping         CNVDamp         .... on
   Fraction old density DampFac         ....    0.7000
   Max. Damping (<1)    DampMax         ....    0.9800
   Min. Damping (>=0)   DampMin         ....    0.0000
   Turn off err/grad.   DampErr         ....    0.1000
 Fernandez-Rico         CNVRico         .... off

SCF Procedure:
 Maximum # iterations   MaxIter         ....   125
 SCF integral mode      SCFMode         .... Direct
   Integral package                     .... LIBINT
 Reset frequency        DirectResetFreq ....    20
 Integral Threshold     Thresh          ....  1.000e-10 Eh
 Primitive CutOff       TCut            ....  1.000e-11 Eh

Convergence Tolerance:
 Convergence Check Mode ConvCheckMode   .... Total+1el-Energy
 Convergence forced     ConvForced      .... 0
 Energy Change          TolE            ....  1.000e-06 Eh
 1-El. energy change                    ....  1.000e-03 Eh
 Orbital Gradient       TolG            ....  5.000e-05
 Orbital Rotation angle TolX            ....  5.000e-05
 DIIS Error             TolErr          ....  1.000e-06


Diagonalization of the overlap matrix:
Smallest eigenvalue                        ... 3.543e-05
Time for diagonalization                   ...    0.007 sec
Threshold for overlap eigenvalues          ... 1.000e-08
Number of eigenvalues below threshold      ... 0
Time for construction of square roots      ...    0.006 sec
Total time needed                          ...    0.014 sec

-------------------
DFT GRID GENERATION
-------------------

General Integration Accuracy     IntAcc      ...  4.670
Radial Grid Type                 RadialGrid  ... Gauss-Chebyshev
Angular Grid (max. acc.)         AngularGrid ... Lebedev-302
Angular grid pruning method      GridPruning ... 3 (G Style)
Weight generation scheme         WeightScheme... Becke
Basis function cutoff            BFCut       ...    1.0000e-10
Integration weight cutoff        WCut        ...    1.0000e-14
Grids for H and He will be reduced by one unit

# of grid points (after initial pruning)     ...  36240 (   0.0 sec)
# of grid points (after weights+screening)   ...  34835 (   0.0 sec)
nearest neighbour list constructed           ...    0.0 sec
Grid point re-assignment to atoms done       ...    0.0 sec
Grid point division into batches done        ...    0.1 sec
Reduced shell lists constructed in    0.1 sec

Total number of grid points                  ...    34835
Total number of batches                      ...      548
Average number of points per batch           ...       63
Average number of grid points per atom       ...     4354
Average number of shells per batch           ...    60.83 (77.99%)
Average number of basis functions per batch  ...   170.08 (80.99%)
Average number of large shells per batch     ...    52.62 (86.51%)
Average number of large basis fcns per batch ...   147.04 (86.45%)
Maximum spatial batch extension              ...   2.42,  7.36,  4.98 au
Average spatial batch extension              ...   0.08,  0.10,  0.10 au

Time for grid setup =    0.253 sec

------------------------------
INITIAL GUESS: MODEL POTENTIAL
------------------------------
Loading Hartree-Fock densities                     ... done
Calculating cut-offs                               ... done
Setting up the integral package                    ... done
Initializing the effective Hamiltonian             ... done
Starting the Coulomb interaction                   ... done (   0.0 sec)
Reading the grid                                   ... done
Mapping shells                                     ... done
Starting the XC term evaluation                    ... done (   0.0 sec)
  promolecular density results
     # of electrons  =     31.997452543
     EX              =    -32.681464995
     EC              =     -1.050920973
     EX+EC           =    -33.732385968
Transforming the Hamiltonian                       ... done (   0.0 sec)
Diagonalizing the Hamiltonian                      ... done (   0.0 sec)
Back transforming the eigenvectors                 ... done (   0.0 sec)
Now organizing SCF variables                       ... done
                      ------------------
                      INITIAL GUESS DONE (   0.4 sec)
                      ------------------
--------------
SCF ITERATIONS
--------------
ITER       Energy         Delta-E        Max-DP      RMS-DP      [F,P]     Damp
               ***  Starting incremental Fock matrix formation  ***
  0   -358.6904058010   0.000000000000 0.20366659  0.00182769  0.3428657 0.7000
  1   -358.7677705598  -0.077364758835 0.24129200  0.00183539  0.1000902 0.7000
                               ***Turning on DIIS***
  2   -358.7858651405  -0.018094580676 0.64021877  0.00469150  0.0271165 0.0000
  3   -358.8327400659  -0.046874925409 0.02742139  0.00054136  0.0442360 0.0000
  4   -358.8369906580  -0.004250592077 0.01287753  0.00022040  0.0432115 0.0000
  5   -358.8388449197  -0.001854261685 0.01827545  0.00017159  0.0068065 0.0000
  6   -358.8389577511  -0.000112831394 0.01547290  0.00014002  0.0047860 0.0000
                      *** Initiating the SOSCF procedure ***
                           *** Shutting down DIIS ***
                      *** Re-Reading the Fockian *** 
                      *** Removing any level shift *** 
ITER      Energy       Delta-E        Grad      Rot      Max-DP    RMS-DP
  7   -358.83898638  -0.0000286247  0.000162  0.000162  0.010167  0.000087
               *** Restarting incremental Fock matrix formation ***
  8   -358.83898854  -0.0000021648  0.000026  0.000037  0.000595  0.000006
  9   -358.83898849   0.0000000456  0.000058  0.000059  0.000093  0.000002
                 **** Energy Check signals convergence ****
              ***Rediagonalizing the Fockian in SOSCF/NRSCF***

               *****************************************************
               *                     SUCCESS                       *
               *           SCF CONVERGED AFTER  10 CYCLES          *
               *****************************************************


----------------
TOTAL SCF ENERGY
----------------

Total Energy       :         -358.83898857 Eh           -9764.50530 eV

Components:
Nuclear Repulsion  :           94.24089315 Eh            2564.42508 eV
Electronic Energy  :         -453.07988172 Eh          -12328.93037 eV
One Electron Energy:         -682.63027003 Eh          -18575.31400 eV
Two Electron Energy:          229.55038831 Eh            6246.38363 eV

Virial components:
Potential Energy   :         -716.49171009 Eh          -19496.73063 eV
Kinetic Energy     :          357.65272152 Eh            9732.22533 eV
Virial Ratio       :            2.00331681


DFT components:
N(Alpha)           :       15.999981084074 electrons
N(Beta)            :       15.999981084074 electrons
N(Total)           :       31.999962168147 electrons
E(X)               :      -30.116519127826 Eh       
E(C)               :       -1.064092018625 Eh       
E(XC)              :      -31.180611146451 Eh       
DFET-embed. en.    :        0.000000000000 Eh       

---------------
SCF CONVERGENCE
---------------

  Last Energy change         ...   -7.4546e-08  Tolerance :   1.0000e-06
  Last MAX-Density change    ...    1.7140e-04  Tolerance :   1.0000e-05
  Last RMS-Density change    ...    2.3101e-06  Tolerance :   1.0000e-06
  Last Orbital Gradient      ...    7.7023e-06  Tolerance :   5.0000e-05
  Last Orbital Rotation      ...    2.2233e-05  Tolerance :   5.0000e-05

             **** THE GBW FILE WAS UPDATED (048.gbw) ****
             **** DENSITY FILE WAS UPDATED (048.scfp) ****
             **** ENERGY FILE WAS UPDATED (048.en.tmp) ****
             **** THE GBW FILE WAS UPDATED (048.gbw) ****
             **** DENSITY FILE WAS UPDATED (048.scfp) ****
----------------
ORBITAL ENERGIES
----------------

  NO   OCC          E(Eh)            E(eV) 
   0   2.0000     -55.899003     -1521.0892 
   1   2.0000     -19.040491      -518.1181 
   2   2.0000     -10.160739      -276.4878 
   3   2.0000      -4.069120      -110.7264 
   4   2.0000      -2.613299       -71.1115 
   5   2.0000      -2.613288       -71.1112 
   6   2.0000      -2.609036       -70.9955 
   7   2.0000      -0.961625       -26.1672 
   8   2.0000      -0.656322       -17.8594 
   9   2.0000      -0.460717       -12.5367 
  10   2.0000      -0.427480       -11.6323 
  11   2.0000      -0.423451       -11.5227 
  12   2.0000      -0.408795       -11.1239 
  13   2.0000      -0.272286        -7.4093 
  14   2.0000      -0.271859        -7.3977 
  15   2.0000      -0.227185        -6.1820 
  16   0.0000      -0.046378        -1.2620 
  17   0.0000      -0.046228        -1.2579 
  18   0.0000       0.006876         0.1871 
  19   0.0000       0.018817         0.5120 
  20   0.0000       0.029761         0.8098 
  21   0.0000       0.057199         1.5565 
  22   0.0000       0.059874         1.6292 
  23   0.0000       0.063760         1.7350 
  24   0.0000       0.067819         1.8455 
  25   0.0000       0.078292         2.1304 
  26   0.0000       0.086787         2.3616 
  27   0.0000       0.095218         2.5910 
  28   0.0000       0.095965         2.6113 
  29   0.0000       0.109726         2.9858 
  30   0.0000       0.116907         3.1812 
  31   0.0000       0.129795         3.5319 
  32   0.0000       0.145101         3.9484 
  33   0.0000       0.152273         4.1435 
  34   0.0000       0.165336         4.4990 
  35   0.0000       0.182877         4.9763 
  36   0.0000       0.189567         5.1584 
  37   0.0000       0.208507         5.6738 
  38   0.0000       0.215023         5.8511 
  39   0.0000       0.224334         6.1045 
  40   0.0000       0.232389         6.3236 
  41   0.0000       0.249770         6.7966 
  42   0.0000       0.255242         6.9455 
  43   0.0000       0.257883         7.0174 
  44   0.0000       0.266410         7.2494 
  45   0.0000       0.272916         7.4264 
  46   0.0000       0.284228         7.7342 
  47   0.0000       0.293857         7.9963 
  48   0.0000       0.299383         8.1466 
  49   0.0000       0.307137         8.3576 
  50   0.0000       0.308192         8.3863 
  51   0.0000       0.319954         8.7064 
  52   0.0000       0.340392         9.2625 
  53   0.0000       0.346060         9.4168 
  54   0.0000       0.350920         9.5490 
  55   0.0000       0.353066         9.6074 
  56   0.0000       0.361264         9.8305 
  57   0.0000       0.370666        10.0863 
  58   0.0000       0.399076        10.8594 
  59   0.0000       0.411849        11.2070 
  60   0.0000       0.420509        11.4426 
  61   0.0000       0.437002        11.8914 
  62   0.0000       0.440335        11.9821 
  63   0.0000       0.458143        12.4667 
  64   0.0000       0.477059        12.9814 
  65   0.0000       0.540621        14.7110 
  66   0.0000       0.560176        15.2432 
  67   0.0000       0.580937        15.8081 
  68   0.0000       0.603369        16.4185 
  69   0.0000       0.609944        16.5974 
  70   0.0000       0.614061        16.7094 
  71   0.0000       0.628509        17.1026 
  72   0.0000       0.650434        17.6992 
  73   0.0000       0.697756        18.9869 
  74   0.0000       0.702203        19.1079 
  75   0.0000       0.722370        19.6567 
  76   0.0000       0.739700        20.1283 
  77   0.0000       0.747851        20.3501 
  78   0.0000       0.778540        21.1852 
  79   0.0000       0.786570        21.4036 
  80   0.0000       0.798073        21.7167 
  81   0.0000       0.803276        21.8582 
  82   0.0000       0.806690        21.9511 
  83   0.0000       0.817761        22.2524 
  84   0.0000       0.825095        22.4520 
  85   0.0000       0.874111        23.7858 
  86   0.0000       0.916104        24.9285 
  87   0.0000       0.930243        25.3132 
  88   0.0000       0.940903        25.6033 
  89   0.0000       0.941933        25.6313 
  90   0.0000       0.957261        26.0484 
  91   0.0000       0.977406        26.5966 
  92   0.0000       0.992014        26.9941 
  93   0.0000       1.035005        28.1639 
  94   0.0000       1.036438        28.2029 
  95   0.0000       1.073590        29.2139 
  96   0.0000       1.101024        29.9604 
  97   0.0000       1.106268        30.1031 
  98   0.0000       1.142381        31.0858 
  99   0.0000       1.151599        31.3366 
 100   0.0000       1.153990        31.4017 
 101   0.0000       1.210983        32.9525 
 102   0.0000       1.214852        33.0578 
 103   0.0000       1.239176        33.7197 
 104   0.0000       1.277088        34.7513 
 105   0.0000       1.290802        35.1245 
 106   0.0000       1.327734        36.1295 
 107   0.0000       1.407226        38.2926 
 108   0.0000       1.418880        38.6097 
 109   0.0000       1.437947        39.1285 
 110   0.0000       1.546609        42.0854 
 111   0.0000       1.590736        43.2861 
 112   0.0000       1.594681        43.3935 
 113   0.0000       1.610281        43.8180 
 114   0.0000       1.835256        49.9398 
 115   0.0000       1.842103        50.1262 
 116   0.0000       1.857502        50.5452 
 117   0.0000       1.907802        51.9139 
 118   0.0000       1.934138        52.6306 
 119   0.0000       2.156268        58.6750 
 120   0.0000       2.164361        58.8953 
 121   0.0000       2.274588        61.8947 
 122   0.0000       2.328675        63.3665 
 123   0.0000       2.340529        63.6890 
 124   0.0000       2.414227        65.6945 
 125   0.0000       2.433610        66.2219 
 126   0.0000       2.467433        67.1423 
 127   0.0000       2.539809        69.1117 
 128   0.0000       2.763808        75.2070 
 129   0.0000       2.790105        75.9226 
 130   0.0000       2.795612        76.0725 
 131   0.0000       2.895569        78.7924 
 132   0.0000       2.902454        78.9798 
 133   0.0000       2.910630        79.2023 
 134   0.0000       2.941071        80.0306 
 135   0.0000       2.957847        80.4871 
 136   0.0000       3.012835        81.9834 
 137   0.0000       3.022142        82.2367 
 138   0.0000       3.030315        82.4591 
 139   0.0000       3.129671        85.1627 
 140   0.0000       3.138668        85.4075 
 141   0.0000       3.160169        85.9926 
 142   0.0000       3.172058        86.3161 
 143   0.0000       3.245903        88.3255 
 144   0.0000       3.254755        88.5664 
 145   0.0000       3.335537        90.7646 
 146   0.0000       3.378466        91.9327 
 147   0.0000       3.385345        92.1199 
 148   0.0000       3.413830        92.8950 
 149   0.0000       3.467575        94.3575 
 150   0.0000       3.516721        95.6948 
 151   0.0000       3.524006        95.8931 
 152   0.0000       3.591380        97.7264 
 153   0.0000       3.605005        98.0972 
 154   0.0000       3.645726        99.2052 
 155   0.0000       3.732163       101.5573 
 156   0.0000       3.765707       102.4701 
 157   0.0000       3.766700       102.4971 
 158   0.0000       3.781389       102.8968 
 159   0.0000       3.827954       104.1639 
 160   0.0000       3.833001       104.3013 
 161   0.0000       3.842989       104.5730 
 162   0.0000       3.861408       105.0742 
 163   0.0000       3.873799       105.4114 
 164   0.0000       3.897350       106.0523 
 165   0.0000       3.941206       107.2457 
 166   0.0000       3.981298       108.3366 
 167   0.0000       4.099546       111.5543 
 168   0.0000       4.162807       113.2757 
 169   0.0000       4.171108       113.5016 
 170   0.0000       4.217159       114.7547 
 171   0.0000       4.322002       117.6077 
 172   0.0000       4.329746       117.8184 
 173   0.0000       4.351497       118.4103 
 174   0.0000       4.501122       122.4818 
 175   0.0000       4.650040       126.5340 
 176   0.0000       4.656966       126.7225 
 177   0.0000       4.692992       127.7028 
 178   0.0000       4.872665       132.5920 
 179   0.0000       5.005563       136.2083 
 180   0.0000       5.014330       136.4469 
 181   0.0000       5.017022       136.5201 
 182   0.0000       5.117709       139.2599 
 183   0.0000       5.263754       143.2340 
 184   0.0000       5.331552       145.0789 
 185   0.0000       5.401631       146.9859 
 186   0.0000       5.422447       147.5523 
 187   0.0000       5.425203       147.6273 
 188   0.0000       5.551527       151.0647 
 189   0.0000       5.556385       151.1969 
 190   0.0000       5.640031       153.4730 
 191   0.0000       5.649110       153.7201 
 192   0.0000       5.742456       156.2602 
 193   0.0000       5.743449       156.2872 
 194   0.0000       5.912985       160.9005 
 195   0.0000       6.052105       164.6862 
 196   0.0000       6.053519       164.7246 
 197   0.0000       6.323348       172.0671 
 198   0.0000       6.548305       178.1884 
 199   0.0000       6.573380       178.8708 
 200   0.0000       7.000592       190.4958 
 201   0.0000       7.006065       190.6447 
 202   0.0000       7.445932       202.6141 
 203   0.0000       7.543906       205.2801 
 204   0.0000       8.296103       225.7484 
 205   0.0000       9.381125       255.2734 
 206   0.0000       9.387340       255.4425 
 207   0.0000       9.676932       263.3227 
 208   0.0000      23.614688       642.5883 
 209   0.0000      44.313605      1205.8345 

                    ********************************
                    * MULLIKEN POPULATION ANALYSIS *
                    ********************************

-----------------------
MULLIKEN ATOMIC CHARGES
-----------------------
   0 O :    0.260560
   1 H :    0.047706
   2 H :    0.046288
   3 C :    0.123793
   4 H :   -0.081148
   5 H :    0.076333
   6 Al:   -0.524681
   7 H :    0.051150
Sum of atomic charges:   -0.0000000

--------------------------------
MULLIKEN REDUCED ORBITAL CHARGES
--------------------------------
  0 O s       :     3.550051  s :     3.550051
      pz      :     1.751696  p :     4.164965
      px      :     0.659934
      py      :     1.753334
      dz2     :     0.002760  d :     0.022713
      dxz     :     0.005086
      dyz     :     0.000423
      dx2y2   :     0.006997
      dxy     :     0.007447
      f0      :     0.000156  f :     0.001711
      f+1     :     0.000326
      f-1     :     0.000024
      f+2     :     0.000268
      f-2     :     0.000009
      f+3     :     0.000545
      f-3     :     0.000383
  1 H s       :     0.905654  s :     0.905654
      pz      :     0.002297  p :     0.045032
      px      :     0.018017
      py      :     0.024718
      dz2     :     0.000100  d :     0.001608
      dxz     :     0.000069
      dyz     :     0.000516
      dx2y2   :     0.000450
      dxy     :     0.000473
  2 H s       :     0.905918  s :     0.905918
      pz      :     0.017754  p :     0.046181
      px      :     0.019274
      py      :     0.009153
      dz2     :     0.000490  d :     0.001613
      dxz     :     0.000391
      dyz     :     0.000231
      dx2y2   :     0.000305
      dxy     :     0.000196
  3 C s       :     3.057325  s :     3.057325
      pz      :     0.993081  p :     2.673017
      px      :     0.684293
      py      :     0.995643
      dz2     :     0.009620  d :     0.135895
      dxz     :     0.043767
      dyz     :     0.011661
      dx2y2   :     0.015206
      dxy     :     0.055641
      f0      :     0.001136  f :     0.009971
      f+1     :     0.001267
      f-1     :     0.000694
      f+2     :     0.001936
      f-2     :     0.000357
      f+3     :     0.001675
      f-3     :     0.002905
  4 H s       :     1.044420  s :     1.044420
      pz      :     0.034209  p :     0.036582
      px      :     0.002038
      py      :     0.000335
      dz2     :     0.000096  d :     0.000146
      dxz     :     0.000046
      dyz     :     0.000001
      dx2y2   :     0.000004
      dxy     :     0.000000
  5 H s       :     0.912166  s :     0.912166
      pz      :     0.008783  p :     0.011380
      px      :     0.002643
      py      :    -0.000046
      dz2     :     0.000088  d :     0.000122
      dxz     :     0.000033
      dyz     :     0.000000
      dx2y2   :     0.000001
      dxy     :     0.000000
  6 Als       :     6.695842  s :     6.695842
      pz      :     2.140265  p :     6.616209
      px      :     2.340731
      py      :     2.135213
      dz2     :     0.017770  d :     0.174629
      dxz     :     0.053998
      dyz     :     0.000086
      dx2y2   :     0.050922
      dxy     :     0.051853
      f0      :     0.005526  f :     0.038002
      f+1     :     0.003370
      f-1     :     0.000890
      f+2     :     0.009175
      f-2     :     0.000057
      f+3     :     0.005328
      f-3     :     0.013656
  7 H s       :     0.898237  s :     0.898237
      pz      :     0.023132  p :     0.049007
      px      :     0.019341
      py      :     0.006534
      dz2     :     0.000497  d :     0.001606
      dxz     :     0.000333
      dyz     :     0.000328
      dx2y2   :     0.000307
      dxy     :     0.000142


                     *******************************
                     * LOEWDIN POPULATION ANALYSIS *
                     *******************************

----------------------
LOEWDIN ATOMIC CHARGES
----------------------
   0 O :   -0.523669
   1 H :   -0.003032
   2 H :   -0.004285
   3 C :   -0.003860
   4 H :    0.006681
   5 H :    0.035762
   6 Al:    0.506970
   7 H :   -0.014568

-------------------------------
LOEWDIN REDUCED ORBITAL CHARGES
-------------------------------
  0 O s       :     3.341662  s :     3.341662
      pz      :     1.561142  p :     4.727221
      px      :     1.612576
      py      :     1.553503
      dz2     :     0.055079  d :     0.451190
      dxz     :     0.125568
      dyz     :     0.001945
      dx2y2   :     0.144019
      dxy     :     0.124579
      f0      :     0.000339  f :     0.003596
      f+1     :     0.000672
      f-1     :     0.000051
      f+2     :     0.000577
      f-2     :     0.000025
      f+3     :     0.001106
      f-3     :     0.000825
  1 H s       :     0.712679  s :     0.712679
      pz      :     0.074955  p :     0.263080
      px      :     0.057996
      py      :     0.130128
      dz2     :     0.002892  d :     0.027274
      dxz     :     0.000941
      dyz     :     0.008423
      dx2y2   :     0.007481
      dxy     :     0.007536
  2 H s       :     0.712718  s :     0.712718
      pz      :     0.114156  p :     0.264282
      px      :     0.055801
      py      :     0.094325
      dz2     :     0.008474  d :     0.027285
      dxz     :     0.005239
      dyz     :     0.007228
      dx2y2   :     0.003503
      dxy     :     0.002841
  3 C s       :     2.665191  s :     2.665191
      pz      :     0.925279  p :     2.582296
      px      :     0.728316
      py      :     0.928700
      dz2     :     0.090399  d :     0.689809
      dxz     :     0.196597
      dyz     :     0.057676
      dx2y2   :     0.156494
      dxy     :     0.188644
      f0      :     0.006249  f :     0.066565
      f+1     :     0.010786
      f-1     :     0.005195
      f+2     :     0.010318
      f-2     :     0.004353
      f+3     :     0.014114
      f-3     :     0.015550
  4 H s       :     0.885710  s :     0.885710
      pz      :     0.086700  p :     0.101906
      px      :     0.014616
      py      :     0.000591
      dz2     :     0.003827  d :     0.005702
      dxz     :     0.001813
      dyz     :     0.000005
      dx2y2   :     0.000057
      dxy     :     0.000001
  5 H s       :     0.902672  s :     0.902672
      pz      :     0.048449  p :     0.055658
      px      :     0.007158
      py      :     0.000051
      dz2     :     0.004033  d :     0.005908
      dxz     :     0.001814
      dyz     :     0.000004
      dx2y2   :     0.000057
      dxy     :     0.000001
  6 Als       :     5.222882  s :     5.222882
      pz      :     2.110634  p :     6.760225
      px      :     2.540263
      py      :     2.109328
      dz2     :     0.048578  d :     0.351952
      dxz     :     0.092653
      dyz     :     0.000168
      dx2y2   :     0.128811
      dxy     :     0.081741
      f0      :     0.018430  f :     0.157971
      f+1     :     0.022560
      f-1     :     0.003022
      f+2     :     0.030747
      f-2     :     0.000191
      f+3     :     0.036866
      f-3     :     0.046155
  7 H s       :     0.710856  s :     0.710856
      pz      :     0.126700  p :     0.276397
      px      :     0.065407
      py      :     0.084290
      dz2     :     0.008147  d :     0.027315
      dxz     :     0.006780
      dyz     :     0.006971
      dx2y2   :     0.002934
      dxy     :     0.002483


                      *****************************
                      * MAYER POPULATION ANALYSIS *
                      *****************************

  NA   - Mulliken gross atomic population
  ZA   - Total nuclear charge
  QA   - Mulliken gross atomic charge
  VA   - Mayer's total valence
  BVA  - Mayer's bonded valence
  FA   - Mayer's free valence

  ATOM       NA         ZA         QA         VA         BVA        FA
  0 O      7.7394     8.0000     0.2606     0.1208     0.1208    -0.0000
  1 H      0.9523     1.0000     0.0477     1.0789     1.0789    -0.0000
  2 H      0.9537     1.0000     0.0463     1.0773     1.0773     0.0000
  3 C      5.8762     6.0000     0.1238     3.7227     3.7227    -0.0000
  4 H      1.0811     1.0000    -0.0811     1.0195     1.0195     0.0000
  5 H      0.9237     1.0000     0.0763     0.9947     0.9947     0.0000
  6 Al    13.5247    13.0000    -0.5247    -0.6385    -0.6385    -0.0000
  7 H      0.9489     1.0000     0.0511     1.0905     1.0905    -0.0000

  Mayer bond orders larger than 0.100000
B(  0-O ,  3-C ) :   0.6867 B(  0-O ,  6-Al) :  -0.6987 B(  1-H ,  3-C ) :   1.0023 
B(  2-H ,  3-C ) :   1.0094 B(  3-C ,  7-H ) :   1.0034 B(  4-H ,  5-H ) :   0.9869 


-------
TIMINGS
-------

Total SCF time: 0 days 0 hours 0 min 4 sec 

Total time                  ....       4.496 sec
Sum of individual times     ....       4.258 sec  ( 94.7%)

Fock matrix formation       ....       3.786 sec  ( 84.2%)
  XC integration            ....       0.557 sec  ( 14.7% of F)
    Basis function eval.    ....       0.062 sec  ( 11.1% of XC)
    Density eval.           ....       0.109 sec  ( 19.5% of XC)
    XC-Functional eval.     ....       0.033 sec  (  6.0% of XC)
    XC-Potential eval.      ....       0.246 sec  ( 44.1% of XC)
Diagonalization             ....       0.051 sec  (  1.1%)
Density matrix formation    ....       0.008 sec  (  0.2%)
Population analysis         ....       0.007 sec  (  0.2%)
Initial guess               ....       0.121 sec  (  2.7%)
Orbital Transformation      ....       0.000 sec  (  0.0%)
Orbital Orthonormalization  ....       0.000 sec  (  0.0%)
DIIS solution               ....       0.020 sec  (  0.4%)
SOSCF solution              ....       0.012 sec  (  0.3%)
Grid generation             ....       0.253 sec  (  5.6%)


-------------------------------------------------------------------------------
                          DFT DISPERSION CORRECTION                            
                                                                               
                              DFTD3 V3.1  Rev 1                                
                          USING Becke-Johnson damping                          
-------------------------------------------------------------------------------
The TPSSH functional is recognized
Active option DFTDOPT                   ...         4   

molecular C6(AA) [au] = 1289.042418 


            DFT-D V3
 parameters
 s6 scaling factor         :     1.0000 
 a1 scaling factor         :     0.4529 
 s8 scaling factor         :     2.2382 
 a2 scaling factor         :     4.6550 
 ad hoc parameters k1-k3   :    16.0000     1.3333    -4.0000 

 Edisp/kcal,au: -3.177811006362  -0.005064163648 
 E6   /kcal   :  -1.405183629 
 E8   /kcal   :  -1.772627378 
 % E8         :  55.781397131 

-------------------------   ----------------
Dispersion correction           -0.005064164
-------------------------   ----------------


-------------------------   --------------------
FINAL SINGLE POINT ENERGY      -358.844052733158
-------------------------   --------------------


                            ***************************************
                            *     ORCA property calculations      *
                            ***************************************

                                    ---------------------
                                    Active property flags
                                    ---------------------
   (+) Dipole Moment


------------------------------------------------------------------------------
                       ORCA ELECTRIC PROPERTIES CALCULATION
------------------------------------------------------------------------------

Dipole Moment Calculation                       ... on
Quadrupole Moment Calculation                   ... off
Polarizability Calculation                      ... off
GBWName                                         ... 048.gbw
Electron density file                           ... 048.scfp
The origin for moment calculation is the CENTER OF MASS  = ( 2.155275, -0.002589  1.222241)

-------------
DIPOLE MOMENT
-------------
                                X             Y             Z
Electronic contribution:      8.63396      -0.00596       5.31938
Nuclear contribution   :     -8.98536       0.01025      -5.24566
                        -----------------------------------------
Total Dipole Moment    :     -0.35140       0.00429       0.07372
                        -----------------------------------------
Magnitude (a.u.)       :      0.35907
Magnitude (Debye)      :      0.91269



--------------------
Rotational spectrum 
--------------------
 
Rotational constants in cm-1:     0.678137     0.159402     0.132325 
Rotational constants in MHz : 20330.024381  4778.738837  3967.007595 

 Dipole components along the rotational axes: 
x,y,z [a.u.] :     0.351398     0.073724    -0.004288 
x,y,z [Debye]:     0.893183     0.187390    -0.010898 

 

Timings for individual modules:

Sum of individual times         ...        5.851 sec (=   0.098 min)
GTO integral calculation        ...        0.914 sec (=   0.015 min)  15.6 %
SCF iterations                  ...        4.937 sec (=   0.082 min)  84.4 %
                             ****ORCA TERMINATED NORMALLY****
TOTAL RUN TIME: 0 days 0 hours 0 minutes 6 seconds 497 msec
