
                                 *****************
                                 * O   R   C   A *
                                 *****************

           --- An Ab Initio, DFT and Semiempirical electronic structure package ---

                  #######################################################
                  #                        -***-                        #
                  #          Department of theory and spectroscopy      #
                  #               Directorship: Frank Neese             #
                  #        Max Planck Institute fuer Kohlenforschung    #
                  #                Kaiser Wilhelm Platz 1               #
                  #                 D-45470 Muelheim/Ruhr               #
                  #                      Germany                        #
                  #                                                     #
                  #                  All rights reserved                #
                  #                        -***-                        #
                  #######################################################


                         Program Version 4.2.0 -  RELEASE  -


 With contributions from (in alphabetic order):
   Daniel Aravena         : Magnetic Suceptibility
   Michael Atanasov       : Ab Initio Ligand Field Theory (pilot matlab implementation)
   Alexander A. Auer      : GIAO ZORA, VPT2
   Ute Becker             : Parallelization
   Giovanni Bistoni       : ED, misc. LED, open-shell LED, HFLED
   Martin Brehm           : Molecular dynamics
   Dmytro Bykov           : SCF Hessian
   Vijay G. Chilkuri      : MRCI spin determinant printing, contributions to CSF-ICE
   Dipayan Datta          : RHF DLPNO-CCSD density
   Achintya Kumar Dutta   : EOM-CC, STEOM-CC
   Dmitry Ganyushin       : Spin-Orbit,Spin-Spin,Magnetic field MRCI
   Miquel Garcia          : C-PCM Hessian, Gaussian charge scheme
   Yang Guo               : DLPNO-NEVPT2, CIM, IAO-localization
   Andreas Hansen         : Spin unrestricted coupled pair/coupled cluster methods
   Benjamin Helmich-Paris : CASSCF linear response (MC-RPA)
   Lee Huntington         : MR-EOM, pCC
   Robert Izsak           : Overlap fitted RIJCOSX, COSX-SCS-MP3, EOM
   Christian Kollmar      : KDIIS, OOCD, Brueckner-CCSD(T), CCSD density
   Simone Kossmann        : Meta GGA functionals, TD-DFT gradient, OOMP2, MP2 Hessian
   Martin Krupicka        : AUTO-CI
   Lucas Lang             : DCDCAS
   Dagmar Lenk            : GEPOL surface, SMD
   Dimitrios Liakos       : Extrapolation schemes; Compound Job, initial MDCI parallelization
   Dimitrios Manganas     : Further ROCIS development; embedding schemes
   Dimitrios Pantazis     : SARC Basis sets
   Taras Petrenko         : DFT Hessian,TD-DFT gradient, ASA, ECA, R-Raman, ABS, FL, XAS/XES, NRVS
   Peter Pinski           : DLPNO-MP2, DLPNO-MP2 Gradient
   Christoph Reimann      : Effective Core Potentials
   Marius Retegan         : Local ZFS, SOC
   Christoph Riplinger    : Optimizer, TS searches, QM/MM, DLPNO-CCSD(T), (RO)-DLPNO pert. Triples
   Tobias Risthaus        : Range-separated hybrids, TD-DFT gradient, RPA, STAB
   Michael Roemelt        : Original ROCIS implementation
   Masaaki Saitow         : Open-shell DLPNO-CCSD energy and density
   Barbara Sandhoefer     : DKH picture change effects
   Avijit Sen             : IP-ROCIS
   Kantharuban Sivalingam : CASSCF convergence, NEVPT2, FIC-MRCI
   Bernardo de Souza      : ESD, SOC TD-DFT
   Georgi Stoychev        : AutoAux, RI-MP2 NMR
   Willem Van den Heuvel  : Paramagnetic NMR
   Boris Wezisla          : Elementary symmetry handling
   Frank Wennmohs         : Technical directorship


 We gratefully acknowledge several colleagues who have allowed us to
 interface, adapt or use parts of their codes:
   Stefan Grimme, W. Hujo, H. Kruse,             : VdW corrections, initial TS optimization,
                  C. Bannwarth                     DFT functionals, gCP, sTDA/sTD-DF
   Ed Valeev, F. Pavosevic, A. Kumar             : LibInt (2-el integral package), F12 methods
   Garnet Chan, S. Sharma, J. Yang, R. Olivares  : DMRG
   Ulf Ekstrom                                   : XCFun DFT Library
   Mihaly Kallay                                 : mrcc  (arbitrary order and MRCC methods)
   Andreas Klamt, Michael Diedenhofen            : otool_cosmo (COSMO solvation model)
   Jiri Pittner, Ondrej Demel                    : Mk-CCSD
   Frank Weinhold                                : gennbo (NPA and NBO analysis)
   Christopher J. Cramer and Donald G. Truhlar   : smd solvation model
   Lars Goerigk                                  : TD-DFT with DH, B97 family of functionals
   V. Asgeirsson, H. Jonsson                     : NEB implementation
   FAccTs GmbH                                   : IRC, NEB, NEB-TS, Multilevel, MM, QM/MM, CI optimization
   S Lehtola, MJT Oliveira, MAL Marques          : LibXC Library


 Your calculation uses the libint2 library for the computation of 2-el integrals
 For citations please refer to: http://libint.valeyev.net

 Your ORCA version has been built with support for libXC version: 4.2.3
 For citations please refer to: https://tddft.org/programs/libxc/

 This ORCA versions uses:
   CBLAS   interface :  Fast vector & matrix operations
   LAPACKE interface :  Fast linear algebra routines
   SCALAPACK package :  Parallel linear algebra routines


Your calculation utilizes the atom-pairwise dispersion correction
with the Becke-Johnson damping scheme (D3BJ)
Cite in your paper:
S.Grimme, S.Ehrlich, L.Goerigk, J Comput Chem, (2011), 32, 1456–1465 
S.Grimme, J.Antony, S.Ehrlich and H.Krieg, J.Chem.Phys., 132, (2010), 154104 
   

----- Orbital basis set information -----
Your calculation utilizes the basis: def2-TZVPPD
   F. Weigend and R. Ahlrichs, Phys. Chem. Chem. Phys. 7, 3297 (2005).
   D. Rappoport and F. Furche, J. Chem. Phys. 133 134105 (2010).

----- AuxJK basis set information -----
Your calculation utilizes the auxiliary basis: def2/JK
   H-Ba, Hf-Rn: F. Weigend, J. Comput. Chem. 29, 167 (2008).

================================================================================
                                        WARNINGS
                       Please study these warnings very carefully!
================================================================================


INFO   : the flag for use of LIBINT has been found!

================================================================================
                                       INPUT FILE
================================================================================
NAME = 070.in
|  1> #
|  2> # 070 TPSSh-D3BJ/Def2-TZVPPD
|  3> #
|  4> ! tpssh d3bj def2-tzvppd def2/jk grid4 nofinalgrid
|  5> 
|  6> *xyz 0 1
|  7> H          0.08530       -0.02655        1.60712
|  8> H          0.90656       -0.78582       -1.39861
|  9> Be        -0.05035        0.92778       -0.02639
| 10> H          0.07901        0.71807        1.80526
| 11> F         -0.04624       -1.68577        0.17900
| 12> C         -0.00461       -0.62157       -0.79461
| 13> H         -0.11623        2.26790        0.10895
| 14> H         -0.85344       -0.79405       -1.48072
| 15> *
| 16> 
| 17> %maxcore 5000
| 18> 
| 19> %pal
| 20> nprocs = 24
| 21> end
| 22> 
| 23> 
| 24>                          ****END OF INPUT****
================================================================================

                       ****************************
                       * Single Point Calculation *
                       ****************************

---------------------------------
CARTESIAN COORDINATES (ANGSTROEM)
---------------------------------
  H      0.085300   -0.026550    1.607120
  H      0.906560   -0.785820   -1.398610
  Be    -0.050350    0.927780   -0.026390
  H      0.079010    0.718070    1.805260
  F     -0.046240   -1.685770    0.179000
  C     -0.004610   -0.621570   -0.794610
  H     -0.116230    2.267900    0.108950
  H     -0.853440   -0.794050   -1.480720

----------------------------
CARTESIAN COORDINATES (A.U.)
----------------------------
  NO LB      ZA    FRAG     MASS         X           Y           Z
   0 H     1.0000    0     1.008    0.161194   -0.050172    3.037017
   1 H     1.0000    0     1.008    1.713150   -1.484985   -2.642990
   2 Be    4.0000    0     9.012   -0.095148    1.753250   -0.049870
   3 H     1.0000    0     1.008    0.149307    1.356956    3.411447
   4 F     9.0000    0    18.998   -0.087381   -3.185644    0.338261
   5 C     6.0000    0    12.011   -0.008712   -1.174597   -1.501595
   6 H     1.0000    0     1.008   -0.219643    4.285710    0.205886
   7 H     1.0000    0     1.008   -1.612768   -1.500537   -2.798155

--------------------------------
INTERNAL COORDINATES (ANGSTROEM)
--------------------------------
 H      0   0   0     0.000000000000     0.00000000     0.00000000
 H      1   0   0     3.207081500898     0.00000000     0.00000000
 Be     1   2   0     1.896708093382    47.95385863     0.00000000
 H      1   2   3     0.770556920740   118.15536226   332.61515603
 F      2   1   3     2.050997599852    42.60999464   224.74103801
 C      2   1   3     1.105452319822    40.68306355   290.68814003
 H      3   1   2     1.348546886245   114.64955815   203.02665553
 H      6   2   1     1.104992602419   105.70707496   180.80386071

---------------------------
INTERNAL COORDINATES (A.U.)
---------------------------
 H      0   0   0     0.000000000000     0.00000000     0.00000000
 H      1   0   0     6.060505725862     0.00000000     0.00000000
 Be     1   2   0     3.584258852484    47.95385863     0.00000000
 H      1   2   3     1.456141550796   118.15536226   332.61515603
 F      2   1   3     3.875823765051    42.60999464   224.74103801
 C      2   1   3     2.089002138572    40.68306355   290.68814003
 H      3   1   2     2.548384293755   114.64955815   203.02665553
 H      6   2   1     2.088133398580   105.70707496   180.80386071

---------------------
BASIS SET INFORMATION
---------------------
There are 4 groups of distinct atoms

 Group   1 Type H   : 5s3p1d contracted to 3s3p1d pattern {311/111/1}
 Group   2 Type Be  : 11s5p1d contracted to 5s4p1d pattern {62111/1211/1}
 Group   3 Type F   : 12s7p3d1f contracted to 6s4p3d1f pattern {621111/4111/111/1}
 Group   4 Type C   : 12s6p3d1f contracted to 6s3p3d1f pattern {621111/411/111/1}

Atom   0H    basis set group =>   1
Atom   1H    basis set group =>   1
Atom   2Be   basis set group =>   2
Atom   3H    basis set group =>   1
Atom   4F    basis set group =>   3
Atom   5C    basis set group =>   4
Atom   6H    basis set group =>   1
Atom   7H    basis set group =>   1
----------------------------------
AUXILIARY/JK BASIS SET INFORMATION
----------------------------------
There are 4 groups of distinct atoms

 Group   1 Type H   : 4s2p2d contracted to 2s2p2d pattern {31/11/11}
 Group   2 Type Be  : 10s7p4d2f contracted to 7s5p3d2f pattern {4111111/31111/211/11}
 Group   3 Type F   : 14s10p6d2f1g contracted to 10s8p4d2f1g pattern {5111111111/31111111/3111/11/1}
 Group   4 Type C   : 14s10p6d2f1g contracted to 10s8p5d1f1g pattern {5111111111/31111111/21111/2/1}

Atom   0H    basis set group =>   1
Atom   1H    basis set group =>   1
Atom   2Be   basis set group =>   2
Atom   3H    basis set group =>   1
Atom   4F    basis set group =>   3
Atom   5C    basis set group =>   4
Atom   6H    basis set group =>   1
Atom   7H    basis set group =>   1


           ************************************************************
           *        Program running with 24 parallel MPI-processes    *
           *              working on a common directory               *
           ************************************************************
------------------------------------------------------------------------------
                           ORCA GTO INTEGRAL CALCULATION
------------------------------------------------------------------------------

                         BASIS SET STATISTICS AND STARTUP INFO

 # of primitive gaussian shells          ...  107
 # of primitive gaussian functions       ...  233
 # of contracted shells                  ...   72
 # of contracted basis functions         ...  184
 Highest angular momentum                ...    3
 Maximum contraction depth               ...    6
 Integral package used                   ... LIBINT
 Integral threshhold            Thresh   ...  1.000e-10
 Primitive cut-off              TCut     ...  1.000e-11


------------------------------ INTEGRAL EVALUATION ----------------------------


 * One electron integrals 
 Pre-screening matrix                    ... done
 Shell pair data                         ... done (   0.001 sec)



           ************************************************************
           *        Program running with 24 parallel MPI-processes    *
           *              working on a common directory               *
           ************************************************************
-------------------------------------------------------------------------------
                                 ORCA SCF
-------------------------------------------------------------------------------

------------
SCF SETTINGS
------------
Hamiltonian:
 Density Functional     Method          .... DFT(GTOs)
 Exchange Functional    Exchange        .... TPSS
 Correlation Functional Correlation     .... TPSS
 LDA part of GGA corr.  LDAOpt          .... PW91-LDA
 Gradients option       PostSCFGGA      .... off
 Hybrid DFT is turned on
   Fraction HF Exchange ScalHFX         ....  0.100000
   Scaling of DF-GGA-X  ScalDFX         ....  0.900000
   Scaling of DF-GGA-C  ScalDFC         ....  1.000000
   Scaling of DF-LDA-C  ScalLDAC        ....  1.000000
   Perturbative correction              ....  0.000000
   Density functional embedding theory  .... OFF
   NL short-range parameter             ....  5.200000


General Settings:
 Integral files         IntName         .... 070
 Hartree-Fock type      HFTyp           .... RHF
 Total Charge           Charge          ....    0
 Multiplicity           Mult            ....    1
 Number of Electrons    NEL             ....   24
 Basis Dimension        Dim             ....  184
 Nuclear Repulsion      ENuc            ....     61.1525331119 Eh

Convergence Acceleration:
 DIIS                   CNVDIIS         .... on
   Start iteration      DIISMaxIt       ....    12
   Startup error        DIISStart       ....  0.200000
   # of expansion vecs  DIISMaxEq       ....     5
   Bias factor          DIISBfac        ....   1.050
   Max. coefficient     DIISMaxC        ....  10.000
 Newton-Raphson         CNVNR           .... off
 SOSCF                  CNVSOSCF        .... on
   Start iteration      SOSCFMaxIt      ....   150
   Startup grad/error   SOSCFStart      ....  0.003300
 Level Shifting         CNVShift        .... on
   Level shift para.    LevelShift      ....    0.2500
   Turn off err/grad.   ShiftErr        ....    0.0010
 Zerner damping         CNVZerner       .... off
 Static damping         CNVDamp         .... on
   Fraction old density DampFac         ....    0.7000
   Max. Damping (<1)    DampMax         ....    0.9800
   Min. Damping (>=0)   DampMin         ....    0.0000
   Turn off err/grad.   DampErr         ....    0.1000
 Fernandez-Rico         CNVRico         .... off

SCF Procedure:
 Maximum # iterations   MaxIter         ....   125
 SCF integral mode      SCFMode         .... Direct
   Integral package                     .... LIBINT
 Reset frequency        DirectResetFreq ....    20
 Integral Threshold     Thresh          ....  1.000e-10 Eh
 Primitive CutOff       TCut            ....  1.000e-11 Eh

Convergence Tolerance:
 Convergence Check Mode ConvCheckMode   .... Total+1el-Energy
 Convergence forced     ConvForced      .... 0
 Energy Change          TolE            ....  1.000e-06 Eh
 1-El. energy change                    ....  1.000e-03 Eh
 Orbital Gradient       TolG            ....  5.000e-05
 Orbital Rotation angle TolX            ....  5.000e-05
 DIIS Error             TolErr          ....  1.000e-06


Diagonalization of the overlap matrix:
Smallest eigenvalue                        ... 3.700e-05
Time for diagonalization                   ...    0.008 sec
Threshold for overlap eigenvalues          ... 1.000e-08
Number of eigenvalues below threshold      ... 0
Time for construction of square roots      ...    0.003 sec
Total time needed                          ...    0.012 sec

-------------------
DFT GRID GENERATION
-------------------

General Integration Accuracy     IntAcc      ...  4.670
Radial Grid Type                 RadialGrid  ... Gauss-Chebyshev
Angular Grid (max. acc.)         AngularGrid ... Lebedev-302
Angular grid pruning method      GridPruning ... 3 (G Style)
Weight generation scheme         WeightScheme... Becke
Basis function cutoff            BFCut       ...    1.0000e-10
Integration weight cutoff        WCut        ...    1.0000e-14
Grids for H and He will be reduced by one unit

# of grid points (after initial pruning)     ...  35414 (   0.0 sec)
# of grid points (after weights+screening)   ...  33837 (   0.0 sec)
nearest neighbour list constructed           ...    0.0 sec
Grid point re-assignment to atoms done       ...    0.0 sec
Grid point division into batches done        ...    0.1 sec
Reduced shell lists constructed in    0.1 sec

Total number of grid points                  ...    33837
Total number of batches                      ...      532
Average number of points per batch           ...       63
Average number of grid points per atom       ...     4230
Average number of shells per batch           ...    42.46 (58.97%)
Average number of basis functions per batch  ...   106.38 (57.81%)
Average number of large shells per batch     ...    34.42 (81.06%)
Average number of large basis fcns per batch ...    84.58 (79.51%)
Maximum spatial batch extension              ...  18.83, 12.62, 17.46 au
Average spatial batch extension              ...   0.28,  0.21,  0.26 au

Time for grid setup =    0.172 sec

------------------------------
INITIAL GUESS: MODEL POTENTIAL
------------------------------
Loading Hartree-Fock densities                     ... done
Calculating cut-offs                               ... done
Setting up the integral package                    ... done
Initializing the effective Hamiltonian             ... done
Starting the Coulomb interaction                   ... done (   0.0 sec)
Reading the grid                                   ... done
Mapping shells                                     ... done
Starting the XC term evaluation                    ... done (   0.0 sec)
  promolecular density results
     # of electrons  =     23.997510267
     EX              =    -19.209779643
     EC              =     -0.735359335
     EX+EC           =    -19.945138978
Transforming the Hamiltonian                       ... done (   0.0 sec)
Diagonalizing the Hamiltonian                      ... done (   0.0 sec)
Back transforming the eigenvectors                 ... done (   0.0 sec)
Now organizing SCF variables                       ... done
                      ------------------
                      INITIAL GUESS DONE (   0.3 sec)
                      ------------------
--------------
SCF ITERATIONS
--------------
ITER       Energy         Delta-E        Max-DP      RMS-DP      [F,P]     Damp
               ***  Starting incremental Fock matrix formation  ***
  0   -155.6628562841   0.000000000000 0.02549707  0.00080662  0.1416008 0.7000
  1   -155.6851922537  -0.022335969604 0.02040368  0.00065837  0.0754595 0.7000
                               ***Turning on DIIS***
  2   -155.6954438953  -0.010251641578 0.05213785  0.00149056  0.0489141 0.0000
  3   -155.7110022312  -0.015558335894 0.01509955  0.00038093  0.0421942 0.0000
  4   -155.7143704986  -0.003368267389 0.00681798  0.00012156  0.0059120 0.0000
                      *** Initiating the SOSCF procedure ***
                           *** Shutting down DIIS ***
                      *** Re-Reading the Fockian *** 
                      *** Removing any level shift *** 
ITER      Energy       Delta-E        Grad      Rot      Max-DP    RMS-DP
  5   -155.71447674  -0.0001062456  0.000503  0.000503  0.003430  0.000051
               *** Restarting incremental Fock matrix formation ***
  6   -155.71448889  -0.0000121497  0.000374  0.000766  0.002445  0.000047
  7   -155.71448328   0.0000056174  0.000630  0.000481  0.000783  0.000015
  8   -155.71449253  -0.0000092564  0.000031  0.000062  0.000217  0.000003
  9   -155.71449253   0.0000000053  0.000035  0.000038  0.000068  0.000001
                 **** Energy Check signals convergence ****
              ***Rediagonalizing the Fockian in SOSCF/NRSCF***

               *****************************************************
               *                     SUCCESS                       *
               *           SCF CONVERGED AFTER  10 CYCLES          *
               *****************************************************


----------------
TOTAL SCF ENERGY
----------------

Total Energy       :         -155.71449257 Eh           -4237.20676 eV

Components:
Nuclear Repulsion  :           61.15253311 Eh            1664.04502 eV
Electronic Energy  :         -216.86702568 Eh           -5901.25178 eV
One Electron Energy:         -334.62805500 Eh           -9105.69230 eV
Two Electron Energy:          117.76102932 Eh            3204.44052 eV

Virial components:
Potential Energy   :         -310.68335627 Eh           -8454.12392 eV
Kinetic Energy     :          154.96886370 Eh            4216.91717 eV
Virial Ratio       :            2.00481148


DFT components:
N(Alpha)           :       11.999977464732 electrons
N(Beta)            :       11.999977464732 electrons
N(Total)           :       23.999954929465 electrons
E(X)               :      -17.889626754966 Eh       
E(C)               :       -0.738022761064 Eh       
E(XC)              :      -18.627649516031 Eh       
DFET-embed. en.    :        0.000000000000 Eh       

---------------
SCF CONVERGENCE
---------------

  Last Energy change         ...   -3.9682e-08  Tolerance :   1.0000e-06
  Last MAX-Density change    ...    4.1084e-05  Tolerance :   1.0000e-05
  Last RMS-Density change    ...    8.5984e-07  Tolerance :   1.0000e-06
  Last Orbital Gradient      ...    2.7926e-06  Tolerance :   5.0000e-05
  Last Orbital Rotation      ...    6.9446e-06  Tolerance :   5.0000e-05

             **** THE GBW FILE WAS UPDATED (070.gbw) ****
             **** DENSITY FILE WAS UPDATED (070.scfp) ****
             **** ENERGY FILE WAS UPDATED (070.en.tmp) ****
             **** THE GBW FILE WAS UPDATED (070.gbw) ****
             **** DENSITY FILE WAS UPDATED (070.scfp) ****
----------------
ORBITAL ENERGIES
----------------

  NO   OCC          E(Eh)            E(eV) 
   0   2.0000     -24.571481      -668.6240 
   1   2.0000     -10.153189      -276.2823 
   2   2.0000      -3.976942      -108.2181 
   3   2.0000      -1.138871       -30.9903 
   4   2.0000      -0.648841       -17.6559 
   5   2.0000      -0.505891       -13.7660 
   6   2.0000      -0.444547       -12.0967 
   7   2.0000      -0.437682       -11.9099 
   8   2.0000      -0.398267       -10.8374 
   9   2.0000      -0.318217        -8.6591 
  10   2.0000      -0.310017        -8.4360 
  11   2.0000      -0.267820        -7.2877 
  12   0.0000      -0.038226        -1.0402 
  13   0.0000      -0.007209        -0.1962 
  14   0.0000       0.006416         0.1746 
  15   0.0000       0.018438         0.5017 
  16   0.0000       0.030899         0.8408 
  17   0.0000       0.042609         1.1594 
  18   0.0000       0.045163         1.2290 
  19   0.0000       0.077540         2.1100 
  20   0.0000       0.098782         2.6880 
  21   0.0000       0.100682         2.7397 
  22   0.0000       0.103751         2.8232 
  23   0.0000       0.120127         3.2688 
  24   0.0000       0.126396         3.4394 
  25   0.0000       0.152054         4.1376 
  26   0.0000       0.157440         4.2842 
  27   0.0000       0.161454         4.3934 
  28   0.0000       0.183247         4.9864 
  29   0.0000       0.190285         5.1779 
  30   0.0000       0.192145         5.2285 
  31   0.0000       0.222993         6.0680 
  32   0.0000       0.228931         6.2295 
  33   0.0000       0.230951         6.2845 
  34   0.0000       0.243929         6.6376 
  35   0.0000       0.248977         6.7750 
  36   0.0000       0.262094         7.1320 
  37   0.0000       0.273586         7.4446 
  38   0.0000       0.296418         8.0659 
  39   0.0000       0.298042         8.1101 
  40   0.0000       0.309912         8.4331 
  41   0.0000       0.319758         8.7011 
  42   0.0000       0.320263         8.7148 
  43   0.0000       0.344396         9.3715 
  44   0.0000       0.347285         9.4501 
  45   0.0000       0.359087         9.7713 
  46   0.0000       0.376041        10.2326 
  47   0.0000       0.412287        11.2189 
  48   0.0000       0.421150        11.4601 
  49   0.0000       0.445186        12.1141 
  50   0.0000       0.452416        12.3109 
  51   0.0000       0.458841        12.4857 
  52   0.0000       0.471524        12.8308 
  53   0.0000       0.496539        13.5115 
  54   0.0000       0.536250        14.5921 
  55   0.0000       0.539860        14.6903 
  56   0.0000       0.553463        15.0605 
  57   0.0000       0.583562        15.8795 
  58   0.0000       0.607421        16.5288 
  59   0.0000       0.611464        16.6388 
  60   0.0000       0.627587        17.0775 
  61   0.0000       0.644368        17.5342 
  62   0.0000       0.652991        17.7688 
  63   0.0000       0.658814        17.9273 
  64   0.0000       0.685254        18.6467 
  65   0.0000       0.700113        19.0511 
  66   0.0000       0.715868        19.4798 
  67   0.0000       0.735182        20.0053 
  68   0.0000       0.754409        20.5285 
  69   0.0000       0.788027        21.4433 
  70   0.0000       0.801532        21.8108 
  71   0.0000       0.838592        22.8193 
  72   0.0000       0.869222        23.6527 
  73   0.0000       0.897432        24.4204 
  74   0.0000       0.987893        26.8819 
  75   0.0000       1.016341        27.6561 
  76   0.0000       1.026389        27.9295 
  77   0.0000       1.040720        28.3194 
  78   0.0000       1.056099        28.7379 
  79   0.0000       1.081582        29.4313 
  80   0.0000       1.114295        30.3215 
  81   0.0000       1.128127        30.6979 
  82   0.0000       1.153913        31.3996 
  83   0.0000       1.183675        32.2094 
  84   0.0000       1.192508        32.4498 
  85   0.0000       1.251212        34.0472 
  86   0.0000       1.254896        34.1475 
  87   0.0000       1.307672        35.5836 
  88   0.0000       1.344994        36.5991 
  89   0.0000       1.352378        36.8001 
  90   0.0000       1.408126        38.3171 
  91   0.0000       1.475913        40.1616 
  92   0.0000       1.502899        40.8960 
  93   0.0000       1.568884        42.6915 
  94   0.0000       1.646228        44.7961 
  95   0.0000       1.654256        45.0146 
  96   0.0000       1.835449        49.9451 
  97   0.0000       1.837697        50.0063 
  98   0.0000       2.090536        56.8864 
  99   0.0000       2.223156        60.4952 
 100   0.0000       2.309481        62.8442 
 101   0.0000       2.361883        64.2701 
 102   0.0000       2.381700        64.8094 
 103   0.0000       2.502594        68.0990 
 104   0.0000       2.538708        69.0818 
 105   0.0000       2.585565        70.3568 
 106   0.0000       2.616166        71.1895 
 107   0.0000       2.776980        75.5655 
 108   0.0000       2.789907        75.9172 
 109   0.0000       2.847365        77.4807 
 110   0.0000       2.903740        79.0148 
 111   0.0000       2.966430        80.7207 
 112   0.0000       3.000214        81.6400 
 113   0.0000       3.041690        82.7686 
 114   0.0000       3.044386        82.8420 
 115   0.0000       3.090279        84.0908 
 116   0.0000       3.155667        85.8701 
 117   0.0000       3.201576        87.1193 
 118   0.0000       3.216038        87.5128 
 119   0.0000       3.262017        88.7640 
 120   0.0000       3.357849        91.3717 
 121   0.0000       3.363064        91.5136 
 122   0.0000       3.386670        92.1560 
 123   0.0000       3.406323        92.6908 
 124   0.0000       3.455613        94.0320 
 125   0.0000       3.488121        94.9166 
 126   0.0000       3.499840        95.2355 
 127   0.0000       3.522340        95.8477 
 128   0.0000       3.538757        96.2945 
 129   0.0000       3.564711        97.0007 
 130   0.0000       3.610628        98.2502 
 131   0.0000       3.659299        99.5746 
 132   0.0000       3.704308       100.7993 
 133   0.0000       3.737284       101.6967 
 134   0.0000       3.781897       102.9107 
 135   0.0000       3.802835       103.4804 
 136   0.0000       3.830875       104.2434 
 137   0.0000       3.853471       104.8583 
 138   0.0000       3.867891       105.2507 
 139   0.0000       3.900531       106.1388 
 140   0.0000       3.959445       107.7420 
 141   0.0000       4.023427       109.4830 
 142   0.0000       4.084395       111.1420 
 143   0.0000       4.118459       112.0690 
 144   0.0000       4.163821       113.3033 
 145   0.0000       4.173430       113.5648 
 146   0.0000       4.190482       114.0288 
 147   0.0000       4.195118       114.1550 
 148   0.0000       4.283128       116.5498 
 149   0.0000       4.297766       116.9482 
 150   0.0000       4.315001       117.4171 
 151   0.0000       4.443357       120.9099 
 152   0.0000       4.525768       123.1524 
 153   0.0000       4.745141       129.1218 
 154   0.0000       4.748406       129.2107 
 155   0.0000       4.955219       134.8384 
 156   0.0000       4.962303       135.0311 
 157   0.0000       5.206890       141.6867 
 158   0.0000       5.241388       142.6254 
 159   0.0000       5.380844       146.4202 
 160   0.0000       5.423647       147.5849 
 161   0.0000       5.433448       147.8516 
 162   0.0000       5.518783       150.1737 
 163   0.0000       5.561668       151.3407 
 164   0.0000       5.718550       155.6096 
 165   0.0000       5.727208       155.8453 
 166   0.0000       6.014652       163.6670 
 167   0.0000       6.807494       185.2413 
 168   0.0000       6.951290       189.1542 
 169   0.0000       6.975053       189.8008 
 170   0.0000       7.034413       191.4161 
 171   0.0000       7.100536       193.2154 
 172   0.0000       7.200858       195.9453 
 173   0.0000       7.314126       199.0275 
 174   0.0000       7.320274       199.1948 
 175   0.0000       7.421182       201.9406 
 176   0.0000       8.132352       221.2925 
 177   0.0000       8.571806       233.2507 
 178   0.0000       8.589282       233.7262 
 179   0.0000       8.828640       240.2395 
 180   0.0000       8.850451       240.8330 
 181   0.0000       9.342649       254.2264 
 182   0.0000      23.058893       627.4644 
 183   0.0000      57.448546      1563.2544 

                    ********************************
                    * MULLIKEN POPULATION ANALYSIS *
                    ********************************

-----------------------
MULLIKEN ATOMIC CHARGES
-----------------------
   0 H :    0.092617
   1 H :   -0.062907
   2 Be:    0.099120
   3 H :   -0.024703
   4 F :   -0.320152
   5 C :    0.367337
   6 H :   -0.093646
   7 H :   -0.057667
Sum of atomic charges:    0.0000000

--------------------------------
MULLIKEN REDUCED ORBITAL CHARGES
--------------------------------
  0 H s       :     0.860868  s :     0.860868
      pz      :     0.012338  p :     0.046195
      px      :     0.000772
      py      :     0.033085
      dz2     :     0.000080  d :     0.000320
      dxz     :     0.000008
      dyz     :    -0.000018
      dx2y2   :     0.000246
      dxy     :     0.000004
  1 H s       :     1.006010  s :     1.006010
      pz      :     0.015526  p :     0.055163
      px      :     0.022815
      py      :     0.016821
      dz2     :     0.000364  d :     0.001734
      dxz     :     0.000285
      dyz     :     0.000246
      dx2y2   :     0.000390
      dxy     :     0.000448
  2 Bes       :     2.751185  s :     2.751185
      pz      :     0.202509  p :     1.062905
      px      :     0.037065
      py      :     0.823331
      dz2     :     0.026666  d :     0.086789
      dxz     :     0.005233
      dyz     :     0.024871
      dx2y2   :     0.015198
      dxy     :     0.014822
  3 H s       :     0.960554  s :     0.960554
      pz      :     0.016598  p :     0.063875
      px      :     0.000586
      py      :     0.046691
      dz2     :    -0.000062  d :     0.000274
      dxz     :     0.000003
      dyz     :     0.000158
      dx2y2   :     0.000175
      dxy     :     0.000000
  4 F s       :     3.950949  s :     3.950949
      pz      :     1.716970  p :     5.341695
      px      :     1.953006
      py      :     1.671719
      dz2     :     0.007103  d :     0.027060
      dxz     :     0.004814
      dyz     :     0.005878
      dx2y2   :     0.005358
      dxy     :     0.003907
      f0      :     0.000047  f :     0.000448
      f+1     :     0.000013
      f-1     :     0.000135
      f+2     :     0.000129
      f-2     :     0.000059
      f+3     :     0.000024
      f-3     :     0.000040
  5 C s       :     3.018804  s :     3.018804
      pz      :     0.777502  p :     2.526361
      px      :     0.893437
      py      :     0.855422
      dz2     :    -0.033293  d :     0.077950
      dxz     :     0.033839
      dyz     :     0.025542
      dx2y2   :     0.042573
      dxy     :     0.009289
      f0      :     0.001375  f :     0.009548
      f+1     :     0.000383
      f-1     :     0.002129
      f+2     :     0.001923
      f-2     :     0.001928
      f+3     :     0.000905
      f-3     :     0.000904
  6 H s       :     1.072284  s :     1.072284
      pz      :     0.004582  p :     0.020907
      px      :     0.000890
      py      :     0.015434
      dz2     :     0.000104  d :     0.000455
      dxz     :    -0.000000
      dyz     :     0.000042
      dx2y2   :     0.000305
      dxy     :     0.000005
  7 H s       :     0.999109  s :     0.999109
      pz      :     0.020173  p :     0.056824
      px      :     0.019030
      py      :     0.017621
      dz2     :     0.000429  d :     0.001734
      dxz     :     0.000218
      dyz     :     0.000309
      dx2y2   :     0.000397
      dxy     :     0.000380


                     *******************************
                     * LOEWDIN POPULATION ANALYSIS *
                     *******************************

----------------------
LOEWDIN ATOMIC CHARGES
----------------------
   0 H :    0.077744
   1 H :   -0.052746
   2 Be:    0.366007
   3 H :    0.072182
   4 F :   -0.178669
   5 C :   -0.121376
   6 H :   -0.109707
   7 H :   -0.053436

-------------------------------
LOEWDIN REDUCED ORBITAL CHARGES
-------------------------------
  0 H s       :     0.726767  s :     0.726767
      pz      :     0.063859  p :     0.189232
      px      :     0.004563
      py      :     0.120809
      dz2     :     0.001180  d :     0.006257
      dxz     :     0.000017
      dyz     :     0.000894
      dx2y2   :     0.004139
      dxy     :     0.000027
  1 H s       :     0.727809  s :     0.727809
      pz      :     0.089789  p :     0.296639
      px      :     0.126834
      py      :     0.080015
      dz2     :     0.004745  d :     0.028299
      dxz     :     0.008139
      dyz     :     0.003431
      dx2y2   :     0.006597
      dxy     :     0.005388
  2 Bes       :     2.456148  s :     2.456148
      pz      :     0.216932  p :     0.919233
      px      :     0.046102
      py      :     0.656199
      dz2     :     0.091200  d :     0.258611
      dxz     :     0.011622
      dyz     :     0.059461
      dx2y2   :     0.064603
      dxy     :     0.031725
  3 H s       :     0.762452  s :     0.762452
      pz      :     0.065091  p :     0.159365
      px      :     0.001225
      py      :     0.093049
      dz2     :     0.000731  d :     0.006001
      dxz     :     0.000014
      dyz     :     0.001560
      dx2y2   :     0.003692
      dxy     :     0.000004
  4 F s       :     3.637096  s :     3.637096
      pz      :     1.718582  p :     5.279974
      px      :     1.859167
      py      :     1.702224
      dz2     :     0.066026  d :     0.260527
      dxz     :     0.042732
      dyz     :     0.067101
      dx2y2   :     0.049659
      dxy     :     0.035010
      f0      :     0.000141  f :     0.001072
      f+1     :     0.000036
      f-1     :     0.000301
      f+2     :     0.000235
      f-2     :     0.000181
      f+3     :     0.000073
      f-3     :     0.000104
  5 C s       :     2.733293  s :     2.733293
      pz      :     0.822133  p :     2.681352
      px      :     0.955766
      py      :     0.903453
      dz2     :     0.125548  d :     0.641618
      dxz     :     0.142727
      dyz     :     0.165919
      dx2y2   :     0.155541
      dxy     :     0.051883
      f0      :     0.009849  f :     0.065113
      f+1     :     0.003050
      f-1     :     0.014755
      f+2     :     0.014404
      f-2     :     0.011122
      f+3     :     0.005226
      f-3     :     0.006707
  6 H s       :     1.019095  s :     1.019095
      pz      :     0.020284  p :     0.088013
      px      :     0.002318
      py      :     0.065412
      dz2     :     0.000586  d :     0.002598
      dxz     :     0.000001
      dyz     :     0.000270
      dx2y2   :     0.001675
      dxy     :     0.000067
  7 H s       :     0.727688  s :     0.727688
      pz      :     0.096051  p :     0.297388
      px      :     0.120817
      py      :     0.080520
      dz2     :     0.005494  d :     0.028360
      dxz     :     0.008024
      dyz     :     0.004251
      dx2y2   :     0.006011
      dxy     :     0.004581


                      *****************************
                      * MAYER POPULATION ANALYSIS *
                      *****************************

  NA   - Mulliken gross atomic population
  ZA   - Total nuclear charge
  QA   - Mulliken gross atomic charge
  VA   - Mayer's total valence
  BVA  - Mayer's bonded valence
  FA   - Mayer's free valence

  ATOM       NA         ZA         QA         VA         BVA        FA
  0 H      0.9074     1.0000     0.0926     1.0496     1.0496     0.0000
  1 H      1.0629     1.0000    -0.0629     1.0948     1.0948     0.0000
  2 Be     3.9009     4.0000     0.0991     2.3271     2.3271     0.0000
  3 H      1.0247     1.0000    -0.0247     1.0503     1.0503     0.0000
  4 F      9.3202     9.0000    -0.3202     0.8575     0.8575     0.0000
  5 C      5.6327     6.0000     0.3673     3.8599     3.8599     0.0000
  6 H      1.0936     1.0000    -0.0936     1.0416     1.0416     0.0000
  7 H      1.0577     1.0000    -0.0577     1.1070     1.1070     0.0000

  Mayer bond orders larger than 0.100000
B(  0-H ,  2-Be) :   0.1576 B(  0-H ,  3-H ) :   0.8782 B(  1-H ,  5-C ) :   1.0185 
B(  2-Be,  3-H ) :   0.1735 B(  2-Be,  5-C ) :   1.0498 B(  2-Be,  6-H ) :   0.8751 
B(  4-F ,  5-C ) :   0.7386 B(  5-C ,  7-H ) :   1.0199 

-------
TIMINGS
-------

Total SCF time: 0 days 0 hours 0 min 3 sec 

Total time                  ....       3.474 sec
Sum of individual times     ....       3.258 sec  ( 93.8%)

Fock matrix formation       ....       2.928 sec  ( 84.3%)
  XC integration            ....       0.498 sec  ( 17.0% of F)
    Basis function eval.    ....       0.057 sec  ( 11.4% of XC)
    Density eval.           ....       0.087 sec  ( 17.5% of XC)
    XC-Functional eval.     ....       0.030 sec  (  6.1% of XC)
    XC-Potential eval.      ....       0.181 sec  ( 36.5% of XC)
Diagonalization             ....       0.026 sec  (  0.8%)
Density matrix formation    ....       0.007 sec  (  0.2%)
Population analysis         ....       0.005 sec  (  0.2%)
Initial guess               ....       0.100 sec  (  2.9%)
Orbital Transformation      ....       0.000 sec  (  0.0%)
Orbital Orthonormalization  ....       0.000 sec  (  0.0%)
DIIS solution               ....       0.009 sec  (  0.3%)
SOSCF solution              ....       0.012 sec  (  0.3%)
Grid generation             ....       0.172 sec  (  5.0%)


-------------------------------------------------------------------------------
                          DFT DISPERSION CORRECTION                            
                                                                               
                              DFTD3 V3.1  Rev 1                                
                          USING Becke-Johnson damping                          
-------------------------------------------------------------------------------
The TPSSH functional is recognized
Active option DFTDOPT                   ...         4   

molecular C6(AA) [au] = 518.176448 


            DFT-D V3
 parameters
 s6 scaling factor         :     1.0000 
 a1 scaling factor         :     0.4529 
 s8 scaling factor         :     2.2382 
 a2 scaling factor         :     4.6550 
 ad hoc parameters k1-k3   :    16.0000     1.3333    -4.0000 

 Edisp/kcal,au: -2.525676880839  -0.004024921879 
 E6   /kcal   :  -1.239407294 
 E8   /kcal   :  -1.286269587 
 % E8         :  50.927717511 

-------------------------   ----------------
Dispersion correction           -0.004024922
-------------------------   ----------------


-------------------------   --------------------
FINAL SINGLE POINT ENERGY      -155.718517489091
-------------------------   --------------------


                            ***************************************
                            *     ORCA property calculations      *
                            ***************************************

                                    ---------------------
                                    Active property flags
                                    ---------------------
   (+) Dipole Moment


------------------------------------------------------------------------------
                       ORCA ELECTRIC PROPERTIES CALCULATION
------------------------------------------------------------------------------

Dipole Moment Calculation                       ... on
Quadrupole Moment Calculation                   ... off
Polarizability Calculation                      ... off
GBWName                                         ... 070.gbw
Electron density file                           ... 070.scfp
The origin for moment calculation is the CENTER OF MASS  = (-0.053914, -1.247217 -0.240472)

-------------
DIPOLE MOMENT
-------------
                                X             Y             Z
Electronic contribution:     -0.19874      -3.58169      -0.72142
Nuclear contribution   :      0.26588       3.83479       0.81982
                        -----------------------------------------
Total Dipole Moment    :      0.06714       0.25311       0.09840
                        -----------------------------------------
Magnitude (a.u.)       :      0.27974
Magnitude (Debye)      :      0.71103



--------------------
Rotational spectrum 
--------------------
 
Rotational constants in cm-1:     0.879452     0.304630     0.236523 
Rotational constants in MHz : 26365.310047  9132.583609  7090.795310 

 Dipole components along the rotational axes: 
x,y,z [a.u.] :     0.253106     0.098399    -0.067140 
x,y,z [Debye]:     0.643344     0.250110    -0.170657 

 

Timings for individual modules:

Sum of individual times         ...        4.518 sec (=   0.075 min)
GTO integral calculation        ...        0.659 sec (=   0.011 min)  14.6 %
SCF iterations                  ...        3.860 sec (=   0.064 min)  85.4 %
                             ****ORCA TERMINATED NORMALLY****
TOTAL RUN TIME: 0 days 0 hours 0 minutes 5 seconds 43 msec
