
                                 *****************
                                 * O   R   C   A *
                                 *****************

           --- An Ab Initio, DFT and Semiempirical electronic structure package ---

                  #######################################################
                  #                        -***-                        #
                  #          Department of theory and spectroscopy      #
                  #               Directorship: Frank Neese             #
                  #        Max Planck Institute fuer Kohlenforschung    #
                  #                Kaiser Wilhelm Platz 1               #
                  #                 D-45470 Muelheim/Ruhr               #
                  #                      Germany                        #
                  #                                                     #
                  #                  All rights reserved                #
                  #                        -***-                        #
                  #######################################################


                         Program Version 4.2.0 -  RELEASE  -


 With contributions from (in alphabetic order):
   Daniel Aravena         : Magnetic Suceptibility
   Michael Atanasov       : Ab Initio Ligand Field Theory (pilot matlab implementation)
   Alexander A. Auer      : GIAO ZORA, VPT2
   Ute Becker             : Parallelization
   Giovanni Bistoni       : ED, misc. LED, open-shell LED, HFLED
   Martin Brehm           : Molecular dynamics
   Dmytro Bykov           : SCF Hessian
   Vijay G. Chilkuri      : MRCI spin determinant printing, contributions to CSF-ICE
   Dipayan Datta          : RHF DLPNO-CCSD density
   Achintya Kumar Dutta   : EOM-CC, STEOM-CC
   Dmitry Ganyushin       : Spin-Orbit,Spin-Spin,Magnetic field MRCI
   Miquel Garcia          : C-PCM Hessian, Gaussian charge scheme
   Yang Guo               : DLPNO-NEVPT2, CIM, IAO-localization
   Andreas Hansen         : Spin unrestricted coupled pair/coupled cluster methods
   Benjamin Helmich-Paris : CASSCF linear response (MC-RPA)
   Lee Huntington         : MR-EOM, pCC
   Robert Izsak           : Overlap fitted RIJCOSX, COSX-SCS-MP3, EOM
   Christian Kollmar      : KDIIS, OOCD, Brueckner-CCSD(T), CCSD density
   Simone Kossmann        : Meta GGA functionals, TD-DFT gradient, OOMP2, MP2 Hessian
   Martin Krupicka        : AUTO-CI
   Lucas Lang             : DCDCAS
   Dagmar Lenk            : GEPOL surface, SMD
   Dimitrios Liakos       : Extrapolation schemes; Compound Job, initial MDCI parallelization
   Dimitrios Manganas     : Further ROCIS development; embedding schemes
   Dimitrios Pantazis     : SARC Basis sets
   Taras Petrenko         : DFT Hessian,TD-DFT gradient, ASA, ECA, R-Raman, ABS, FL, XAS/XES, NRVS
   Peter Pinski           : DLPNO-MP2, DLPNO-MP2 Gradient
   Christoph Reimann      : Effective Core Potentials
   Marius Retegan         : Local ZFS, SOC
   Christoph Riplinger    : Optimizer, TS searches, QM/MM, DLPNO-CCSD(T), (RO)-DLPNO pert. Triples
   Tobias Risthaus        : Range-separated hybrids, TD-DFT gradient, RPA, STAB
   Michael Roemelt        : Original ROCIS implementation
   Masaaki Saitow         : Open-shell DLPNO-CCSD energy and density
   Barbara Sandhoefer     : DKH picture change effects
   Avijit Sen             : IP-ROCIS
   Kantharuban Sivalingam : CASSCF convergence, NEVPT2, FIC-MRCI
   Bernardo de Souza      : ESD, SOC TD-DFT
   Georgi Stoychev        : AutoAux, RI-MP2 NMR
   Willem Van den Heuvel  : Paramagnetic NMR
   Boris Wezisla          : Elementary symmetry handling
   Frank Wennmohs         : Technical directorship


 We gratefully acknowledge several colleagues who have allowed us to
 interface, adapt or use parts of their codes:
   Stefan Grimme, W. Hujo, H. Kruse,             : VdW corrections, initial TS optimization,
                  C. Bannwarth                     DFT functionals, gCP, sTDA/sTD-DF
   Ed Valeev, F. Pavosevic, A. Kumar             : LibInt (2-el integral package), F12 methods
   Garnet Chan, S. Sharma, J. Yang, R. Olivares  : DMRG
   Ulf Ekstrom                                   : XCFun DFT Library
   Mihaly Kallay                                 : mrcc  (arbitrary order and MRCC methods)
   Andreas Klamt, Michael Diedenhofen            : otool_cosmo (COSMO solvation model)
   Jiri Pittner, Ondrej Demel                    : Mk-CCSD
   Frank Weinhold                                : gennbo (NPA and NBO analysis)
   Christopher J. Cramer and Donald G. Truhlar   : smd solvation model
   Lars Goerigk                                  : TD-DFT with DH, B97 family of functionals
   V. Asgeirsson, H. Jonsson                     : NEB implementation
   FAccTs GmbH                                   : IRC, NEB, NEB-TS, Multilevel, MM, QM/MM, CI optimization
   S Lehtola, MJT Oliveira, MAL Marques          : LibXC Library


 Your calculation uses the libint2 library for the computation of 2-el integrals
 For citations please refer to: http://libint.valeyev.net

 Your ORCA version has been built with support for libXC version: 4.2.3
 For citations please refer to: https://tddft.org/programs/libxc/

 This ORCA versions uses:
   CBLAS   interface :  Fast vector & matrix operations
   LAPACKE interface :  Fast linear algebra routines
   SCALAPACK package :  Parallel linear algebra routines


Your calculation utilizes the atom-pairwise dispersion correction
with the Becke-Johnson damping scheme (D3BJ)
Cite in your paper:
S.Grimme, S.Ehrlich, L.Goerigk, J Comput Chem, (2011), 32, 1456–1465 
S.Grimme, J.Antony, S.Ehrlich and H.Krieg, J.Chem.Phys., 132, (2010), 154104 
   

----- Orbital basis set information -----
Your calculation utilizes the basis: def2-TZVPPD
   F. Weigend and R. Ahlrichs, Phys. Chem. Chem. Phys. 7, 3297 (2005).
   D. Rappoport and F. Furche, J. Chem. Phys. 133 134105 (2010).

----- AuxJK basis set information -----
Your calculation utilizes the auxiliary basis: def2/JK
   H-Ba, Hf-Rn: F. Weigend, J. Comput. Chem. 29, 167 (2008).

================================================================================
                                        WARNINGS
                       Please study these warnings very carefully!
================================================================================


WARNING: your system is open-shell and RHF/RKS was chosen
  ===> : WILL SWITCH to UHF/UKS


INFO   : the flag for use of LIBINT has been found!

================================================================================
                                       INPUT FILE
================================================================================
NAME = 104.in
|  1> #
|  2> # 104 TPSSh-D3BJ/Def2-TZVPPD
|  3> #
|  4> ! tpssh d3bj def2-tzvppd def2/jk grid4 nofinalgrid
|  5> 
|  6> *xyz 0 2
|  7> C          0.18239        0.81792       -0.17289
|  8> H         -2.32613        0.04031        1.01174
|  9> H          2.24798        0.73105       -0.01871
| 10> C          1.34005        0.10819       -0.12066
| 11> H          0.11379        1.91914       -0.21133
| 12> Si        -1.43329       -0.14152       -0.20061
| 13> H         -1.02937       -1.64029       -0.13873
| 14> Li         0.90457       -1.83481       -0.14881
| 15> *
| 16> 
| 17> %maxcore 5000
| 18> 
| 19> %pal
| 20> nprocs = 24
| 21> end
| 22> 
| 23> 
| 24>                          ****END OF INPUT****
================================================================================

                       ****************************
                       * Single Point Calculation *
                       ****************************

---------------------------------
CARTESIAN COORDINATES (ANGSTROEM)
---------------------------------
  C      0.182390    0.817920   -0.172890
  H     -2.326130    0.040310    1.011740
  H      2.247980    0.731050   -0.018710
  C      1.340050    0.108190   -0.120660
  H      0.113790    1.919140   -0.211330
  Si    -1.433290   -0.141520   -0.200610
  H     -1.029370   -1.640290   -0.138730
  Li     0.904570   -1.834810   -0.148810

----------------------------
CARTESIAN COORDINATES (A.U.)
----------------------------
  NO LB      ZA    FRAG     MASS         X           Y           Z
   0 C     6.0000    0    12.011    0.344667    1.545645   -0.326715
   1 H     1.0000    0     1.008   -4.395749    0.076175    1.911912
   2 H     1.0000    0     1.008    4.248067    1.381484   -0.035357
   3 C     6.0000    0    12.011    2.532328    0.204449   -0.228014
   4 H     1.0000    0     1.008    0.215032    3.626649   -0.399356
   5 Si   14.0000    0    28.086   -2.708526   -0.267434   -0.379098
   6 H     1.0000    0     1.008   -1.945227   -3.099699   -0.262162
   7 Li    3.0000    0     6.941    1.709390   -3.467288   -0.281210

--------------------------------
INTERNAL COORDINATES (ANGSTROEM)
--------------------------------
 C      0   0   0     0.000000000000     0.00000000     0.00000000
 H      1   0   0     2.881093219492     0.00000000     0.00000000
 H      1   2   0     2.073156992946   145.65110357     0.00000000
 C      3   1   2     1.105750996834    36.74033397    60.26063611
 H      1   2   4     1.104024040499   103.26355878   206.01422625
 Si     2   1   3     1.516581002453    36.00953826   245.85043630
 H      6   2   1     1.553477394010   103.70381678   115.06980497
 Li     7   6   2     1.943724147198   110.79629298   235.24261074

---------------------------
INTERNAL COORDINATES (A.U.)
---------------------------
 C      0   0   0     0.000000000000     0.00000000     0.00000000
 H      1   0   0     5.444477151136     0.00000000     0.00000000
 H      1   2   0     3.917698949291   145.65110357     0.00000000
 C      3   1   2     2.089566556327    36.74033397    60.26063611
 H      1   2   4     2.086303081809   103.26355878   206.01422625
 Si     2   1   3     2.865922754543    36.00953826   245.85043630
 H      6   2   1     2.935646829917   103.70381678   115.06980497
 Li     7   6   2     3.673106318094   110.79629298   235.24261074

---------------------
BASIS SET INFORMATION
---------------------
There are 4 groups of distinct atoms

 Group   1 Type C   : 12s6p3d1f contracted to 6s3p3d1f pattern {621111/411/111/1}
 Group   2 Type H   : 5s3p1d contracted to 3s3p1d pattern {311/111/1}
 Group   3 Type Si  : 15s9p4d1f contracted to 6s5p4d1f pattern {732111/51111/1111/1}
 Group   4 Type Li  : 11s4p1d contracted to 5s4p1d pattern {62111/1111/1}

Atom   0C    basis set group =>   1
Atom   1H    basis set group =>   2
Atom   2H    basis set group =>   2
Atom   3C    basis set group =>   1
Atom   4H    basis set group =>   2
Atom   5Si   basis set group =>   3
Atom   6H    basis set group =>   2
Atom   7Li   basis set group =>   4
----------------------------------
AUXILIARY/JK BASIS SET INFORMATION
----------------------------------
There are 4 groups of distinct atoms

 Group   1 Type C   : 14s10p6d2f1g contracted to 10s8p5d1f1g pattern {5111111111/31111111/21111/2/1}
 Group   2 Type H   : 4s2p2d contracted to 2s2p2d pattern {31/11/11}
 Group   3 Type Si  : 16s12p10d4f1g contracted to 13s11p9d4f1g pattern {4111111111111/21111111111/211111111/1111/1}
 Group   4 Type Li  : 10s7p4d2f contracted to 7s5p3d2f pattern {4111111/31111/211/11}

Atom   0C    basis set group =>   1
Atom   1H    basis set group =>   2
Atom   2H    basis set group =>   2
Atom   3C    basis set group =>   1
Atom   4H    basis set group =>   2
Atom   5Si   basis set group =>   3
Atom   6H    basis set group =>   2
Atom   7Li   basis set group =>   4


           ************************************************************
           *        Program running with 24 parallel MPI-processes    *
           *              working on a common directory               *
           ************************************************************
------------------------------------------------------------------------------
                           ORCA GTO INTEGRAL CALCULATION
------------------------------------------------------------------------------

                         BASIS SET STATISTICS AND STARTUP INFO

 # of primitive gaussian shells          ...  125
 # of primitive gaussian functions       ...  277
 # of contracted shells                  ...   80
 # of contracted basis functions         ...  212
 Highest angular momentum                ...    3
 Maximum contraction depth               ...    7
 Integral package used                   ... LIBINT
 Integral threshhold            Thresh   ...  1.000e-10
 Primitive cut-off              TCut     ...  1.000e-11


------------------------------ INTEGRAL EVALUATION ----------------------------


 * One electron integrals 
 Pre-screening matrix                    ... done
 Shell pair data                         ... done (   0.001 sec)



           ************************************************************
           *        Program running with 24 parallel MPI-processes    *
           *              working on a common directory               *
           ************************************************************
-------------------------------------------------------------------------------
                                 ORCA SCF
-------------------------------------------------------------------------------

------------
SCF SETTINGS
------------
Hamiltonian:
 Density Functional     Method          .... DFT(GTOs)
 Exchange Functional    Exchange        .... TPSS
 Correlation Functional Correlation     .... TPSS
 LDA part of GGA corr.  LDAOpt          .... PW91-LDA
 Gradients option       PostSCFGGA      .... off
 Hybrid DFT is turned on
   Fraction HF Exchange ScalHFX         ....  0.100000
   Scaling of DF-GGA-X  ScalDFX         ....  0.900000
   Scaling of DF-GGA-C  ScalDFC         ....  1.000000
   Scaling of DF-LDA-C  ScalLDAC        ....  1.000000
   Perturbative correction              ....  0.000000
   Density functional embedding theory  .... OFF
   NL short-range parameter             ....  5.200000


General Settings:
 Integral files         IntName         .... 104
 Hartree-Fock type      HFTyp           .... UHF
 Total Charge           Charge          ....    0
 Multiplicity           Mult            ....    2
 Number of Electrons    NEL             ....   33
 Basis Dimension        Dim             ....  212
 Nuclear Repulsion      ENuc            ....    100.1175538757 Eh

Convergence Acceleration:
 DIIS                   CNVDIIS         .... on
   Start iteration      DIISMaxIt       ....    12
   Startup error        DIISStart       ....  0.200000
   # of expansion vecs  DIISMaxEq       ....     5
   Bias factor          DIISBfac        ....   1.050
   Max. coefficient     DIISMaxC        ....  10.000
 Newton-Raphson         CNVNR           .... off
 SOSCF                  CNVSOSCF        .... off
 Level Shifting         CNVShift        .... on
   Level shift para.    LevelShift      ....    0.2500
   Turn off err/grad.   ShiftErr        ....    0.0010
 Zerner damping         CNVZerner       .... off
 Static damping         CNVDamp         .... on
   Fraction old density DampFac         ....    0.7000
   Max. Damping (<1)    DampMax         ....    0.9800
   Min. Damping (>=0)   DampMin         ....    0.0000
   Turn off err/grad.   DampErr         ....    0.1000
 Fernandez-Rico         CNVRico         .... off

SCF Procedure:
 Maximum # iterations   MaxIter         ....   125
 SCF integral mode      SCFMode         .... Direct
   Integral package                     .... LIBINT
 Reset frequency        DirectResetFreq ....    20
 Integral Threshold     Thresh          ....  1.000e-10 Eh
 Primitive CutOff       TCut            ....  1.000e-11 Eh

Convergence Tolerance:
 Convergence Check Mode ConvCheckMode   .... Total+1el-Energy
 Convergence forced     ConvForced      .... 0
 Energy Change          TolE            ....  1.000e-06 Eh
 1-El. energy change                    ....  1.000e-03 Eh
 DIIS Error             TolErr          ....  1.000e-06


Diagonalization of the overlap matrix:
Smallest eigenvalue                        ... 8.995e-06
Time for diagonalization                   ...    0.009 sec
Threshold for overlap eigenvalues          ... 1.000e-08
Number of eigenvalues below threshold      ... 0
Time for construction of square roots      ...    0.006 sec
Total time needed                          ...    0.015 sec

-------------------
DFT GRID GENERATION
-------------------

General Integration Accuracy     IntAcc      ...  4.670
Radial Grid Type                 RadialGrid  ... Gauss-Chebyshev
Angular Grid (max. acc.)         AngularGrid ... Lebedev-302
Angular grid pruning method      GridPruning ... 3 (G Style)
Weight generation scheme         WeightScheme... Becke
Basis function cutoff            BFCut       ...    1.0000e-10
Integration weight cutoff        WCut        ...    1.0000e-14
Grids for H and He will be reduced by one unit

# of grid points (after initial pruning)     ...  38614 (   0.0 sec)
# of grid points (after weights+screening)   ...  36710 (   0.0 sec)
nearest neighbour list constructed           ...    0.0 sec
Grid point re-assignment to atoms done       ...    0.0 sec
Grid point division into batches done        ...    0.2 sec
Reduced shell lists constructed in    0.2 sec

Total number of grid points                  ...    36710
Total number of batches                      ...      577
Average number of points per batch           ...       63
Average number of grid points per atom       ...     4589
Average number of shells per batch           ...    65.00 (81.25%)
Average number of basis functions per batch  ...   179.77 (84.80%)
Average number of large shells per batch     ...    56.92 (87.57%)
Average number of large basis fcns per batch ...   159.00 (88.45%)
Maximum spatial batch extension              ...   3.68,  3.55, 17.08 au
Average spatial batch extension              ...   0.08,  0.08,  0.11 au

Time for grid setup =    0.263 sec

------------------------------
INITIAL GUESS: MODEL POTENTIAL
------------------------------
Loading Hartree-Fock densities                     ... done
Calculating cut-offs                               ... done
Setting up the integral package                    ... done
Initializing the effective Hamiltonian             ... done
Starting the Coulomb interaction                   ... done (   0.0 sec)
Reading the grid                                   ... done
Mapping shells                                     ... done
Starting the XC term evaluation                    ... done (   0.0 sec)
  promolecular density results
     # of electrons  =     32.998045738
     EX              =    -33.300058507
     EC              =     -1.072305799
     EX+EC           =    -34.372364306
Transforming the Hamiltonian                       ... done (   0.0 sec)
Diagonalizing the Hamiltonian                      ... done (   0.0 sec)
Back transforming the eigenvectors                 ... done (   0.0 sec)
Now organizing SCF variables                       ... done
                      ------------------
                      INITIAL GUESS DONE (   0.4 sec)
                      ------------------
--------------
SCF ITERATIONS
--------------
ITER       Energy         Delta-E        Max-DP      RMS-DP      [F,P]     Damp
               ***  Starting incremental Fock matrix formation  ***
  0   -375.3877535697   0.000000000000 0.03719769  0.00078054  0.2336216 0.7000
  1   -375.4998008450  -0.112047275274 0.02635961  0.00064378  0.1005421 0.7000
                               ***Turning on DIIS***
  2   -375.5338153697  -0.034014524738 0.04908452  0.00122187  0.0249747 0.0000
  3   -375.5748795974  -0.041064227682 0.02019484  0.00043675  0.0871087 0.0000
  4   -375.6003296223  -0.025450024909 0.01133729  0.00026350  0.0259217 0.0000
  5   -375.6039782970  -0.003648674657 0.00640383  0.00013849  0.0097365 0.0000
  6   -375.6046635984  -0.000685301460 0.00288928  0.00006939  0.0040410 0.0000
  7   -375.6048570012  -0.000193402762 0.00187042  0.00004437  0.0015895 0.0000
  8   -375.6049310184  -0.000074017250 0.00119478  0.00002798  0.0010774 0.0000
  9   -375.6049662204  -0.000035201987 0.00194153  0.00004473  0.0007054 0.0000
 10   -375.6049998899  -0.000033669489 0.00044292  0.00000913  0.0003687 0.0000
 11   -375.6050014259  -0.000001535993 0.00021274  0.00000514  0.0002462 0.0000
 12   -375.6050021472  -0.000000721258 0.00010488  0.00000259  0.0001595 0.0000
                 **** Energy Check signals convergence ****

               *****************************************************
               *                     SUCCESS                       *
               *           SCF CONVERGED AFTER  13 CYCLES          *
               *****************************************************


----------------
TOTAL SCF ENERGY
----------------

Total Energy       :         -375.60500238 Eh          -10220.73173 eV

Components:
Nuclear Repulsion  :          100.11755388 Eh            2724.33714 eV
Electronic Energy  :         -475.72255626 Eh          -12945.06887 eV
One Electron Energy:         -715.44680700 Eh          -19468.29737 eV
Two Electron Energy:          239.72425074 Eh            6523.22850 eV

Virial components:
Potential Energy   :         -749.96055241 Eh          -20407.46413 eV
Kinetic Energy     :          374.35555003 Eh           10186.73240 eV
Virial Ratio       :            2.00333761


DFT components:
N(Alpha)           :       17.000003769227 electrons
N(Beta)            :       16.000012445881 electrons
N(Total)           :       33.000016215108 electrons
E(X)               :      -30.664361475663 Eh       
E(C)               :       -1.086347269802 Eh       
E(XC)              :      -31.750708745466 Eh       
DFET-embed. en.    :        0.000000000000 Eh       

---------------
SCF CONVERGENCE
---------------

  Last Energy change         ...   -2.3689e-07  Tolerance :   1.0000e-06
  Last MAX-Density change    ...    6.2434e-05  Tolerance :   1.0000e-05
  Last RMS-Density change    ...    1.5839e-06  Tolerance :   1.0000e-06
  Last DIIS Error            ...    5.2116e-05  Tolerance :   1.0000e-06

             **** THE GBW FILE WAS UPDATED (104.gbw) ****
             **** DENSITY FILE WAS UPDATED (104.scfp) ****
             **** ENERGY FILE WAS UPDATED (104.en.tmp) ****
----------------------
UHF SPIN CONTAMINATION
----------------------

Warning: in a DFT calculation there is little theoretical justification to 
         calculate <S**2> as in Hartree-Fock theory. We will do it anyways
         but you should keep in mind that the values have only limited relevance

Expectation value of <S**2>     :     0.758570
Ideal value S*(S+1) for S=0.5   :     0.750000
Deviation                       :     0.008570

             **** THE GBW FILE WAS UPDATED (104.gbw) ****
             **** DENSITY FILE WAS UPDATED (104.scfp) ****
----------------
ORBITAL ENERGIES
----------------
                 SPIN UP ORBITALS
  NO   OCC          E(Eh)            E(eV) 
   0   1.0000     -65.976146     -1795.3022 
   1   1.0000     -10.088187      -274.5135 
   2   1.0000     -10.065569      -273.8981 
   3   1.0000      -5.206345      -141.6719 
   4   1.0000      -3.556459       -96.7762 
   5   1.0000      -3.553532       -96.6965 
   6   1.0000      -3.550713       -96.6198 
   7   1.0000      -1.954294       -53.1790 
   8   1.0000      -0.695094       -18.9145 
   9   1.0000      -0.521549       -14.1921 
  10   1.0000      -0.462932       -12.5970 
  11   1.0000      -0.391131       -10.6432 
  12   1.0000      -0.333592        -9.0775 
  13   1.0000      -0.299925        -8.1614 
  14   1.0000      -0.251727        -6.8498 
  15   1.0000      -0.200435        -5.4541 
  16   1.0000      -0.174731        -4.7547 
  17   0.0000      -0.041778        -1.1368 
  18   0.0000      -0.016694        -0.4543 
  19   0.0000       0.003973         0.1081 
  20   0.0000       0.010399         0.2830 
  21   0.0000       0.011577         0.3150 
  22   0.0000       0.025308         0.6887 
  23   0.0000       0.038788         1.0555 
  24   0.0000       0.045932         1.2499 
  25   0.0000       0.051699         1.4068 
  26   0.0000       0.066520         1.8101 
  27   0.0000       0.074875         2.0375 
  28   0.0000       0.088751         2.4150 
  29   0.0000       0.097914         2.6644 
  30   0.0000       0.104618         2.8468 
  31   0.0000       0.109726         2.9858 
  32   0.0000       0.115917         3.1543 
  33   0.0000       0.132177         3.5967 
  34   0.0000       0.142867         3.8876 
  35   0.0000       0.149400         4.0654 
  36   0.0000       0.170510         4.6398 
  37   0.0000       0.173304         4.7158 
  38   0.0000       0.181313         4.9338 
  39   0.0000       0.191432         5.2091 
  40   0.0000       0.192784         5.2459 
  41   0.0000       0.210560         5.7296 
  42   0.0000       0.219241         5.9658 
  43   0.0000       0.230306         6.2669 
  44   0.0000       0.242596         6.6014 
  45   0.0000       0.258839         7.0434 
  46   0.0000       0.260264         7.0821 
  47   0.0000       0.263613         7.1733 
  48   0.0000       0.275509         7.4970 
  49   0.0000       0.284956         7.7541 
  50   0.0000       0.297255         8.0887 
  51   0.0000       0.310817         8.4578 
  52   0.0000       0.313848         8.5402 
  53   0.0000       0.320534         8.7222 
  54   0.0000       0.325505         8.8574 
  55   0.0000       0.339789         9.2461 
  56   0.0000       0.345536         9.4025 
  57   0.0000       0.353650         9.6233 
  58   0.0000       0.364114         9.9081 
  59   0.0000       0.379111        10.3161 
  60   0.0000       0.397217        10.8088 
  61   0.0000       0.406271        11.0552 
  62   0.0000       0.410885        11.1808 
  63   0.0000       0.428923        11.6716 
  64   0.0000       0.434350        11.8193 
  65   0.0000       0.449882        12.2419 
  66   0.0000       0.463777        12.6200 
  67   0.0000       0.468389        12.7455 
  68   0.0000       0.493536        13.4298 
  69   0.0000       0.496678        13.5153 
  70   0.0000       0.507589        13.8122 
  71   0.0000       0.512938        13.9577 
  72   0.0000       0.530586        14.4380 
  73   0.0000       0.541771        14.7423 
  74   0.0000       0.548852        14.9350 
  75   0.0000       0.570288        15.5183 
  76   0.0000       0.585279        15.9262 
  77   0.0000       0.608391        16.5551 
  78   0.0000       0.622526        16.9398 
  79   0.0000       0.624922        17.0050 
  80   0.0000       0.638922        17.3860 
  81   0.0000       0.653750        17.7894 
  82   0.0000       0.668156        18.1815 
  83   0.0000       0.695057        18.9135 
  84   0.0000       0.714358        19.4387 
  85   0.0000       0.743448        20.2303 
  86   0.0000       0.752960        20.4891 
  87   0.0000       0.770684        20.9714 
  88   0.0000       0.784205        21.3393 
  89   0.0000       0.799393        21.7526 
  90   0.0000       0.816511        22.2184 
  91   0.0000       0.851222        23.1629 
  92   0.0000       0.862637        23.4735 
  93   0.0000       0.891759        24.2660 
  94   0.0000       0.903483        24.5850 
  95   0.0000       0.964522        26.2460 
  96   0.0000       0.976027        26.5590 
  97   0.0000       0.988870        26.9085 
  98   0.0000       1.004101        27.3230 
  99   0.0000       1.026577        27.9346 
 100   0.0000       1.051911        28.6240 
 101   0.0000       1.075834        29.2749 
 102   0.0000       1.104810        30.0634 
 103   0.0000       1.113734        30.3062 
 104   0.0000       1.129632        30.7388 
 105   0.0000       1.152345        31.3569 
 106   0.0000       1.182193        32.1691 
 107   0.0000       1.209554        32.9136 
 108   0.0000       1.251567        34.0569 
 109   0.0000       1.302095        35.4318 
 110   0.0000       1.309318        35.6283 
 111   0.0000       1.324024        36.0285 
 112   0.0000       1.359153        36.9844 
 113   0.0000       1.378610        37.5139 
 114   0.0000       1.403952        38.2035 
 115   0.0000       1.428856        38.8811 
 116   0.0000       1.438800        39.1517 
 117   0.0000       1.470439        40.0127 
 118   0.0000       1.502554        40.8866 
 119   0.0000       1.524073        41.4721 
 120   0.0000       1.535241        41.7760 
 121   0.0000       1.550671        42.1959 
 122   0.0000       1.620255        44.0894 
 123   0.0000       1.676283        45.6140 
 124   0.0000       1.690781        46.0085 
 125   0.0000       1.723557        46.9004 
 126   0.0000       1.774499        48.2866 
 127   0.0000       1.790209        48.7141 
 128   0.0000       1.847243        50.2660 
 129   0.0000       1.870045        50.8865 
 130   0.0000       1.878281        51.1106 
 131   0.0000       1.904368        51.8205 
 132   0.0000       2.031356        55.2760 
 133   0.0000       2.110309        57.4244 
 134   0.0000       2.163445        58.8703 
 135   0.0000       2.289475        62.2998 
 136   0.0000       2.333116        63.4873 
 137   0.0000       2.631100        71.5959 
 138   0.0000       2.700505        73.4845 
 139   0.0000       2.771705        75.4219 
 140   0.0000       2.836390        77.1821 
 141   0.0000       2.859014        77.7977 
 142   0.0000       2.895291        78.7849 
 143   0.0000       2.915204        79.3267 
 144   0.0000       2.970718        80.8373 
 145   0.0000       2.984781        81.2200 
 146   0.0000       3.013718        82.0074 
 147   0.0000       3.022978        82.2594 
 148   0.0000       3.096982        84.2732 
 149   0.0000       3.149089        85.6911 
 150   0.0000       3.190127        86.8078 
 151   0.0000       3.258795        88.6763 
 152   0.0000       3.301639        89.8422 
 153   0.0000       3.322056        90.3977 
 154   0.0000       3.363376        91.5221 
 155   0.0000       3.369463        91.6877 
 156   0.0000       3.379194        91.9526 
 157   0.0000       3.391211        92.2795 
 158   0.0000       3.421585        93.1060 
 159   0.0000       3.457186        94.0748 
 160   0.0000       3.483443        94.7893 
 161   0.0000       3.523855        95.8890 
 162   0.0000       3.566902        97.0603 
 163   0.0000       3.604748        98.0902 
 164   0.0000       3.655887        99.4818 
 165   0.0000       3.671182        99.8979 
 166   0.0000       3.697630       100.6176 
 167   0.0000       3.734660       101.6253 
 168   0.0000       3.775262       102.7301 
 169   0.0000       3.794824       103.2624 
 170   0.0000       3.812030       103.7306 
 171   0.0000       3.869652       105.2986 
 172   0.0000       3.884366       105.6990 
 173   0.0000       3.940871       107.2366 
 174   0.0000       4.017938       109.3336 
 175   0.0000       4.053938       110.3133 
 176   0.0000       4.076525       110.9279 
 177   0.0000       4.144210       112.7697 
 178   0.0000       4.163448       113.2932 
 179   0.0000       4.177875       113.6857 
 180   0.0000       4.192610       114.0867 
 181   0.0000       4.246709       115.5588 
 182   0.0000       4.296372       116.9102 
 183   0.0000       4.365631       118.7949 
 184   0.0000       4.452803       121.1669 
 185   0.0000       4.518727       122.9608 
 186   0.0000       4.592345       124.9641 
 187   0.0000       4.611831       125.4943 
 188   0.0000       4.646207       126.4297 
 189   0.0000       4.670669       127.0954 
 190   0.0000       4.710901       128.1901 
 191   0.0000       4.796441       130.5178 
 192   0.0000       4.863307       132.3373 
 193   0.0000       4.983220       135.6003 
 194   0.0000       5.025916       136.7621 
 195   0.0000       5.073491       138.0567 
 196   0.0000       5.157696       140.3481 
 197   0.0000       5.293331       144.0389 
 198   0.0000       5.356454       145.7565 
 199   0.0000       5.450361       148.3119 
 200   0.0000       5.545000       150.8871 
 201   0.0000       5.785265       157.4251 
 202   0.0000       5.894098       160.3866 
 203   0.0000       6.083992       165.5538 
 204   0.0000       6.142872       167.1561 
 205   0.0000       6.329687       172.2395 
 206   0.0000       6.756258       183.8471 
 207   0.0000       6.845982       186.2886 
 208   0.0000      11.754821       319.8649 
 209   0.0000      14.866590       404.5405 
 210   0.0000      22.652049       616.3936 
 211   0.0000      23.143507       629.7668 

                 SPIN DOWN ORBITALS
  NO   OCC          E(Eh)            E(eV) 
   0   1.0000     -65.973251     -1795.2234 
   1   1.0000     -10.087507      -274.4950 
   2   1.0000     -10.062880      -273.8249 
   3   1.0000      -5.203265      -141.5880 
   4   1.0000      -3.551828       -96.6501 
   5   1.0000      -3.549055       -96.5747 
   6   1.0000      -3.547696       -96.5377 
   7   1.0000      -1.954312       -53.1795 
   8   1.0000      -0.690257       -18.7828 
   9   1.0000      -0.510490       -13.8911 
  10   1.0000      -0.455044       -12.3824 
  11   1.0000      -0.385820       -10.4987 
  12   1.0000      -0.327676        -8.9165 
  13   1.0000      -0.293915        -7.9978 
  14   1.0000      -0.237058        -6.4507 
  15   1.0000      -0.188224        -5.1218 
  16   0.0000      -0.094766        -2.5787 
  17   0.0000      -0.040451        -1.1007 
  18   0.0000      -0.013425        -0.3653 
  19   0.0000       0.007773         0.2115 
  20   0.0000       0.016810         0.4574 
  21   0.0000       0.023493         0.6393 
  22   0.0000       0.032218         0.8767 
  23   0.0000       0.047509         1.2928 
  24   0.0000       0.051037         1.3888 
  25   0.0000       0.054206         1.4750 
  26   0.0000       0.072230         1.9655 
  27   0.0000       0.078193         2.1277 
  28   0.0000       0.093362         2.5405 
  29   0.0000       0.105394         2.8679 
  30   0.0000       0.109612         2.9827 
  31   0.0000       0.119191         3.2434 
  32   0.0000       0.123798         3.3687 
  33   0.0000       0.138633         3.7724 
  34   0.0000       0.147610         4.0167 
  35   0.0000       0.158141         4.3032 
  36   0.0000       0.175993         4.7890 
  37   0.0000       0.180246         4.9047 
  38   0.0000       0.185804         5.0560 
  39   0.0000       0.194040         5.2801 
  40   0.0000       0.199714         5.4345 
  41   0.0000       0.215844         5.8734 
  42   0.0000       0.223096         6.0707 
  43   0.0000       0.237124         6.4525 
  44   0.0000       0.247454         6.7336 
  45   0.0000       0.264155         7.1880 
  46   0.0000       0.267867         7.2890 
  47   0.0000       0.270356         7.3567 
  48   0.0000       0.280228         7.6254 
  49   0.0000       0.291918         7.9435 
  50   0.0000       0.301597         8.2069 
  51   0.0000       0.314032         8.5452 
  52   0.0000       0.318993         8.6802 
  53   0.0000       0.324434         8.8283 
  54   0.0000       0.329982         8.9793 
  55   0.0000       0.343620         9.3504 
  56   0.0000       0.351002         9.5512 
  57   0.0000       0.357181         9.7194 
  58   0.0000       0.369237        10.0474 
  59   0.0000       0.382692        10.4136 
  60   0.0000       0.402558        10.9542 
  61   0.0000       0.408666        11.1204 
  62   0.0000       0.417266        11.3544 
  63   0.0000       0.436679        11.8827 
  64   0.0000       0.439583        11.9617 
  65   0.0000       0.453973        12.3532 
  66   0.0000       0.472440        12.8558 
  67   0.0000       0.478339        13.0163 
  68   0.0000       0.499487        13.5917 
  69   0.0000       0.501238        13.6394 
  70   0.0000       0.513600        13.9758 
  71   0.0000       0.519005        14.1229 
  72   0.0000       0.536949        14.6111 
  73   0.0000       0.550077        14.9684 
  74   0.0000       0.554589        15.0911 
  75   0.0000       0.572664        15.5830 
  76   0.0000       0.592501        16.1228 
  77   0.0000       0.612070        16.6553 
  78   0.0000       0.631379        17.1807 
  79   0.0000       0.632885        17.2217 
  80   0.0000       0.645456        17.5638 
  81   0.0000       0.662221        18.0200 
  82   0.0000       0.671302        18.2671 
  83   0.0000       0.699497        19.0343 
  84   0.0000       0.717403        19.5215 
  85   0.0000       0.745674        20.2908 
  86   0.0000       0.756228        20.5780 
  87   0.0000       0.773472        21.0473 
  88   0.0000       0.790852        21.5202 
  89   0.0000       0.802872        21.8473 
  90   0.0000       0.822044        22.3690 
  91   0.0000       0.856161        23.2973 
  92   0.0000       0.871473        23.7140 
  93   0.0000       0.902604        24.5611 
  94   0.0000       0.909372        24.7453 
  95   0.0000       0.973205        26.4823 
  96   0.0000       0.986477        26.8434 
  97   0.0000       0.995850        27.0985 
  98   0.0000       1.014232        27.5986 
  99   0.0000       1.038250        28.2522 
 100   0.0000       1.060749        28.8644 
 101   0.0000       1.087086        29.5811 
 102   0.0000       1.117161        30.3995 
 103   0.0000       1.122764        30.5520 
 104   0.0000       1.141041        31.0493 
 105   0.0000       1.158517        31.5248 
 106   0.0000       1.193413        32.4744 
 107   0.0000       1.221820        33.2474 
 108   0.0000       1.259132        34.2627 
 109   0.0000       1.307940        35.5909 
 110   0.0000       1.324631        36.0450 
 111   0.0000       1.333607        36.2893 
 112   0.0000       1.365793        37.1651 
 113   0.0000       1.390735        37.8438 
 114   0.0000       1.412694        38.4413 
 115   0.0000       1.438820        39.1523 
 116   0.0000       1.448711        39.4214 
 117   0.0000       1.484179        40.3866 
 118   0.0000       1.516354        41.2621 
 119   0.0000       1.533597        41.7313 
 120   0.0000       1.545340        42.0508 
 121   0.0000       1.556872        42.3646 
 122   0.0000       1.633869        44.4598 
 123   0.0000       1.685881        45.8752 
 124   0.0000       1.700907        46.2840 
 125   0.0000       1.731436        47.1148 
 126   0.0000       1.781017        48.4639 
 127   0.0000       1.801029        49.0085 
 128   0.0000       1.852888        50.4196 
 129   0.0000       1.878117        51.1062 
 130   0.0000       1.883927        51.2642 
 131   0.0000       1.910692        51.9926 
 132   0.0000       2.035568        55.3906 
 133   0.0000       2.114649        57.5425 
 134   0.0000       2.168309        59.0027 
 135   0.0000       2.294991        62.4499 
 136   0.0000       2.338715        63.6397 
 137   0.0000       2.638093        71.7862 
 138   0.0000       2.707857        73.6845 
 139   0.0000       2.778443        75.6053 
 140   0.0000       2.843235        77.3683 
 141   0.0000       2.868049        78.0436 
 142   0.0000       2.910418        79.1965 
 143   0.0000       2.925327        79.6022 
 144   0.0000       2.979177        81.0675 
 145   0.0000       2.993030        81.4445 
 146   0.0000       3.020134        82.1820 
 147   0.0000       3.037476        82.6539 
 148   0.0000       3.101868        84.4061 
 149   0.0000       3.157115        85.9095 
 150   0.0000       3.198603        87.0384 
 151   0.0000       3.266230        88.8786 
 152   0.0000       3.307255        89.9950 
 153   0.0000       3.333039        90.6966 
 154   0.0000       3.370399        91.7132 
 155   0.0000       3.379716        91.9667 
 156   0.0000       3.389597        92.2356 
 157   0.0000       3.402790        92.5946 
 158   0.0000       3.426553        93.2412 
 159   0.0000       3.465264        94.2946 
 160   0.0000       3.491283        95.0026 
 161   0.0000       3.532768        96.1315 
 162   0.0000       3.576582        97.3237 
 163   0.0000       3.617206        98.4292 
 164   0.0000       3.680286       100.1457 
 165   0.0000       3.691863       100.4607 
 166   0.0000       3.737852       101.7121 
 167   0.0000       3.756728       102.2258 
 168   0.0000       3.788117       103.0799 
 169   0.0000       3.815767       103.8323 
 170   0.0000       3.832952       104.2999 
 171   0.0000       3.889706       105.8443 
 172   0.0000       3.908668       106.3603 
 173   0.0000       3.959238       107.7363 
 174   0.0000       4.023839       109.4942 
 175   0.0000       4.061661       110.5234 
 176   0.0000       4.086358       111.1955 
 177   0.0000       4.159506       113.1859 
 178   0.0000       4.166429       113.3743 
 179   0.0000       4.190550       114.0307 
 180   0.0000       4.200139       114.2916 
 181   0.0000       4.262180       115.9798 
 182   0.0000       4.300419       117.0203 
 183   0.0000       4.371163       118.9454 
 184   0.0000       4.460297       121.3708 
 185   0.0000       4.537679       123.4765 
 186   0.0000       4.610724       125.4642 
 187   0.0000       4.623754       125.8187 
 188   0.0000       4.660703       126.8242 
 189   0.0000       4.685261       127.4924 
 190   0.0000       4.727976       128.6548 
 191   0.0000       4.803701       130.7153 
 192   0.0000       4.872217       132.5798 
 193   0.0000       4.989856       135.7809 
 194   0.0000       5.033340       136.9642 
 195   0.0000       5.080679       138.2523 
 196   0.0000       5.169662       140.6737 
 197   0.0000       5.303187       144.3071 
 198   0.0000       5.372490       146.1929 
 199   0.0000       5.460173       148.5789 
 200   0.0000       5.549998       151.0231 
 201   0.0000       5.793521       157.6497 
 202   0.0000       5.894086       160.3862 
 203   0.0000       6.084433       165.5658 
 204   0.0000       6.143147       167.1635 
 205   0.0000       6.345174       172.6610 
 206   0.0000       6.772104       184.2783 
 207   0.0000       6.866039       186.8344 
 208   0.0000      11.766712       320.1885 
 209   0.0000      14.866488       404.5377 
 210   0.0000      22.655264       616.4811 
 211   0.0000      23.145757       629.8281 

                    ********************************
                    * MULLIKEN POPULATION ANALYSIS *
                    ********************************

--------------------------------------------
MULLIKEN ATOMIC CHARGES AND SPIN POPULATIONS
--------------------------------------------
   0 C :    0.053481   -0.013801
   1 H :   -0.079253    0.044028
   2 H :   -0.022339   -0.003572
   3 C :   -0.795175    0.194025
   4 H :    0.129697    0.006071
   5 Si:    0.208166    0.755611
   6 H :   -0.277883    0.018787
   7 Li:    0.783305   -0.001149
Sum of atomic charges         :    0.0000000
Sum of atomic spin populations:    1.0000000

-----------------------------------------------------
MULLIKEN REDUCED ORBITAL CHARGES AND SPIN POPULATIONS
-----------------------------------------------------
CHARGE
  0 C s       :     3.160556  s :     3.160556
      pz      :     0.971516  p :     2.716508
      px      :     0.949583
      py      :     0.795409
      dz2     :    -0.004445  d :     0.064683
      dxz     :     0.013409
      dyz     :    -0.004981
      dx2y2   :     0.008335
      dxy     :     0.052366
      f0      :     0.000933  f :     0.004772
      f+1     :     0.000362
      f-1     :     0.000542
      f+2     :     0.000180
      f-2     :     0.000369
      f+3     :     0.001522
      f-3     :     0.000863
  1 H s       :     1.046464  s :     1.046464
      pz      :     0.016837  p :     0.032108
      px      :     0.010694
      py      :     0.004577
      dz2     :     0.000182  d :     0.000680
      dxz     :     0.000276
      dyz     :     0.000070
      dx2y2   :     0.000079
      dxy     :     0.000073
  2 H s       :     0.849240  s :     0.849240
      pz      :     0.047082  p :     0.171389
      px      :     0.034257
      py      :     0.090049
      dz2     :     0.000060  d :     0.001711
      dxz     :     0.000381
      dyz     :     0.000077
      dx2y2   :     0.000729
      dxy     :     0.000463
  3 C s       :     3.463563  s :     3.463563
      pz      :     0.750443  p :     3.228163
      px      :     0.989003
      py      :     1.488717
      dz2     :     0.008446  d :     0.099358
      dxz     :     0.034481
      dyz     :    -0.005173
      dx2y2   :     0.025280
      dxy     :     0.036324
      f0      :     0.000668  f :     0.004090
      f+1     :     0.000260
      f-1     :     0.000192
      f+2     :     0.000179
      f-2     :     0.000517
      f+3     :     0.001306
      f-3     :     0.000968
  4 H s       :     0.846649  s :     0.846649
      pz      :     0.000495  p :     0.022177
      px      :     0.004697
      py      :     0.016985
      dz2     :     0.000071  d :     0.001477
      dxz     :     0.000012
      dyz     :     0.000401
      dx2y2   :     0.000251
      dxy     :     0.000743
  5 Sis       :     5.349060  s :     5.349060
      pz      :     2.831660  p :     8.138961
      px      :     2.707863
      py      :     2.599437
      dz2     :     0.036182  d :     0.281468
      dxz     :     0.109710
      dyz     :     0.010695
      dx2y2   :     0.078231
      dxy     :     0.046649
      f0      :     0.002580  f :     0.022346
      f+1     :     0.003165
      f-1     :     0.002623
      f+2     :     0.001975
      f-2     :     0.002171
      f+3     :     0.005973
      f-3     :     0.003860
  6 H s       :     1.229751  s :     1.229751
      pz      :     0.015887  p :     0.047499
      px      :     0.011986
      py      :     0.019626
      dz2     :     0.000156  d :     0.000634
      dxz     :     0.000019
      dyz     :     0.000110
      dx2y2   :     0.000153
      dxy     :     0.000196
  7 Lis       :     2.059110  s :     2.059110
      pz      :     0.019795  p :     0.129999
      px      :     0.054648
      py      :     0.055556
      dz2     :     0.005121  d :     0.027585
      dxz     :     0.001743
      dyz     :     0.004206
      dx2y2   :     0.011139
      dxy     :     0.005376

SPIN
  0 C s       :    -0.006161  s :    -0.006161
      pz      :    -0.028821  p :    -0.017969
      px      :     0.018421
      py      :    -0.007570
      dz2     :     0.000881  d :     0.009953
      dxz     :     0.006468
      dyz     :     0.001511
      dx2y2   :    -0.002064
      dxy     :     0.003157
      f0      :     0.000049  f :     0.000377
      f+1     :     0.000014
      f-1     :     0.000015
      f+2     :     0.000018
      f-2     :     0.000157
      f+3     :     0.000101
      f-3     :     0.000022
  1 H s       :     0.032581  s :     0.032581
      pz      :     0.009619  p :     0.011352
      px      :     0.002557
      py      :    -0.000825
      dz2     :     0.000035  d :     0.000095
      dxz     :     0.000017
      dyz     :     0.000010
      dx2y2   :     0.000025
      dxy     :     0.000009
  2 H s       :    -0.006578  s :    -0.006578
      pz      :     0.003079  p :     0.002904
      px      :     0.000004
      py      :    -0.000179
      dz2     :    -0.000002  d :     0.000102
      dxz     :     0.000067
      dyz     :     0.000021
      dx2y2   :     0.000011
      dxy     :     0.000005
  3 C s       :     0.020609  s :     0.020609
      pz      :     0.114054  p :     0.163197
      px      :     0.018843
      py      :     0.030300
      dz2     :     0.000108  d :     0.010361
      dxz     :    -0.003382
      dyz     :     0.000294
      dx2y2   :     0.011337
      dxy     :     0.002005
      f0      :    -0.000087  f :    -0.000143
      f+1     :    -0.000080
      f-1     :    -0.000039
      f+2     :    -0.000004
      f-2     :    -0.000005
      f+3     :     0.000058
      f-3     :     0.000014
  4 H s       :     0.006187  s :     0.006187
      pz      :    -0.000757  p :    -0.000132
      px      :     0.001102
      py      :    -0.000478
      dz2     :     0.000001  d :     0.000016
      dxz     :     0.000005
      dyz     :    -0.000005
      dx2y2   :    -0.000003
      dxy     :     0.000018
  5 Sis       :     0.128941  s :     0.128941
      pz      :     0.405022  p :     0.603676
      px      :     0.176079
      py      :     0.022575
      dz2     :    -0.000339  d :     0.023561
      dxz     :     0.022890
      dyz     :    -0.000137
      dx2y2   :     0.003243
      dxy     :    -0.002096
      f0      :    -0.000115  f :    -0.000567
      f+1     :    -0.000063
      f-1     :    -0.000499
      f+2     :    -0.000349
      f-2     :     0.000007
      f+3     :     0.000190
      f-3     :     0.000262
  6 H s       :     0.007038  s :     0.007038
      pz      :     0.003733  p :     0.011695
      px      :     0.006083
      py      :     0.001879
      dz2     :    -0.000004  d :     0.000054
      dxz     :     0.000007
      dyz     :     0.000042
      dx2y2   :     0.000009
      dxy     :    -0.000000
  7 Lis       :    -0.006614  s :    -0.006614
      pz      :    -0.000683  p :     0.004348
      px      :     0.003588
      py      :     0.001443
      dz2     :     0.000182  d :     0.001117
      dxz     :     0.001158
      dyz     :     0.000167
      dx2y2   :    -0.000202
      dxy     :    -0.000187


                     *******************************
                     * LOEWDIN POPULATION ANALYSIS *
                     *******************************

-------------------------------------------
LOEWDIN ATOMIC CHARGES AND SPIN POPULATIONS
-------------------------------------------
   0 C :   -0.423841    0.093529
   1 H :   -0.170277    0.075881
   2 H :   -0.124628    0.020361
   3 C :   -0.142295    0.127017
   4 H :   -0.088575    0.000864
   5 Si:    0.706856    0.611293
   6 H :   -0.153968    0.060767
   7 Li:    0.396729    0.010288

----------------------------------------------------
LOEWDIN REDUCED ORBITAL CHARGES AND SPIN POPULATIONS
----------------------------------------------------
CHARGE
  0 C s       :     2.788508  s :     2.788508
      pz      :     0.816105  p :     2.841422
      px      :     1.049957
      py      :     0.975359
      dz2     :     0.065422  d :     0.767109
      dxz     :     0.094438
      dyz     :     0.033215
      dx2y2   :     0.326189
      dxy     :     0.247844
      f0      :     0.001353  f :     0.026803
      f+1     :     0.002516
      f-1     :     0.002879
      f+2     :     0.001281
      f-2     :     0.002065
      f+3     :     0.010533
      f-3     :     0.006176
  1 H s       :     0.938517  s :     0.938517
      pz      :     0.124423  p :     0.226650
      px      :     0.062767
      py      :     0.039461
      dz2     :     0.001841  d :     0.005110
      dxz     :     0.001892
      dyz     :     0.000515
      dx2y2   :     0.000474
      dxy     :     0.000387
  2 H s       :     0.753371  s :     0.753371
      pz      :     0.075079  p :     0.343671
      px      :     0.122538
      py      :     0.146054
      dz2     :     0.002543  d :     0.027587
      dxz     :     0.004235
      dyz     :     0.001707
      dx2y2   :     0.010272
      dxy     :     0.008830
  3 C s       :     2.860295  s :     2.860295
      pz      :     0.640312  p :     2.783562
      px      :     0.989935
      py      :     1.153315
      dz2     :     0.048619  d :     0.470394
      dxz     :     0.064086
      dyz     :     0.009107
      dx2y2   :     0.173651
      dxy     :     0.174932
      f0      :     0.001930  f :     0.028044
      f+1     :     0.003349
      f-1     :     0.001297
      f+2     :     0.000696
      f-2     :     0.003845
      f+3     :     0.009415
      f-3     :     0.007512
  4 H s       :     0.737063  s :     0.737063
      pz      :     0.089238  p :     0.323736
      px      :     0.084696
      py      :     0.149802
      dz2     :     0.002664  d :     0.027776
      dxz     :     0.000057
      dyz     :     0.007647
      dx2y2   :     0.008321
      dxy     :     0.009088
  5 Sis       :     4.684964  s :     4.684964
      pz      :     2.702590  p :     7.952786
      px      :     2.660169
      py      :     2.590027
      dz2     :     0.087542  d :     0.575415
      dxz     :     0.181084
      dyz     :     0.016129
      dx2y2   :     0.177381
      dxy     :     0.113279
      f0      :     0.006694  f :     0.079979
      f+1     :     0.012444
      f-1     :     0.008992
      f+2     :     0.006037
      f-2     :     0.007440
      f+3     :     0.022803
      f-3     :     0.015568
  6 H s       :     0.884472  s :     0.884472
      pz      :     0.065026  p :     0.264634
      px      :     0.078950
      py      :     0.120658
      dz2     :     0.000657  d :     0.004862
      dxz     :     0.000162
      dyz     :     0.001118
      dx2y2   :     0.001472
      dxy     :     0.001453
  7 Lis       :     2.096674  s :     2.096674
      pz      :     0.037300  p :     0.319698
      px      :     0.142177
      py      :     0.140221
      dz2     :     0.029196  d :     0.186899
      dxz     :     0.003049
      dyz     :     0.027569
      dx2y2   :     0.083478
      dxy     :     0.043606

SPIN
  0 C s       :     0.005563  s :     0.005563
      pz      :    -0.010588  p :     0.013140
      px      :     0.019039
      py      :     0.004688
      dz2     :     0.001955  d :     0.072610
      dxz     :     0.056439
      dyz     :     0.004579
      dx2y2   :     0.003267
      dxy     :     0.006370
      f0      :     0.000174  f :     0.002216
      f+1     :     0.000014
      f-1     :     0.000026
      f+2     :     0.000078
      f-2     :     0.001014
      f+3     :     0.000790
      f-3     :     0.000121
  1 H s       :     0.019343  s :     0.019343
      pz      :     0.046086  p :     0.055580
      px      :     0.008219
      py      :     0.001274
      dz2     :     0.000814  d :     0.000958
      dxz     :    -0.000004
      dyz     :     0.000012
      dx2y2   :     0.000103
      dxy     :     0.000033
  2 H s       :     0.008074  s :     0.008074
      pz      :     0.007753  p :     0.011079
      px      :     0.001849
      py      :     0.001477
      dz2     :     0.000012  d :     0.001208
      dxz     :     0.000793
      dyz     :     0.000314
      dx2y2   :     0.000023
      dxy     :     0.000067
  3 C s       :     0.006574  s :     0.006574
      pz      :     0.080986  p :     0.108284
      px      :     0.007608
      py      :     0.019690
      dz2     :     0.000650  d :     0.012066
      dxz     :    -0.001505
      dyz     :    -0.000422
      dx2y2   :     0.007619
      dxy     :     0.005724
      f0      :    -0.000210  f :     0.000092
      f+1     :    -0.000084
      f-1     :    -0.000011
      f+2     :    -0.000050
      f-2     :    -0.000043
      f+3     :     0.000458
      f-3     :     0.000032
  4 H s       :     0.001263  s :     0.001263
      pz      :    -0.002861  p :    -0.000427
      px      :     0.001525
      py      :     0.000910
      dz2     :     0.000010  d :     0.000028
      dxz     :     0.000008
      dyz     :    -0.000127
      dx2y2   :     0.000011
      dxy     :     0.000125
  5 Sis       :     0.072242  s :     0.072242
      pz      :     0.321163  p :     0.487078
      px      :     0.154992
      py      :     0.010923
      dz2     :     0.001604  d :     0.048603
      dxz     :     0.045787
      dyz     :    -0.000282
      dx2y2   :     0.003218
      dxy     :    -0.001725
      f0      :     0.000284  f :     0.003370
      f+1     :     0.000650
      f-1     :    -0.000438
      f+2     :    -0.000175
      f-2     :     0.000486
      f+3     :     0.000898
      f-3     :     0.001666
  6 H s       :     0.006558  s :     0.006558
      pz      :     0.028767  p :     0.053274
      px      :     0.015056
      py      :     0.009450
      dz2     :    -0.000009  d :     0.000934
      dxz     :     0.000116
      dyz     :     0.000563
      dx2y2   :     0.000020
      dxy     :     0.000245
  7 Lis       :    -0.002773  s :    -0.002773
      pz      :     0.000544  p :     0.007790
      px      :     0.004448
      py      :     0.002798
      dz2     :     0.000344  d :     0.005272
      dxz     :     0.002144
      dyz     :     0.001299
      dx2y2   :     0.001197
      dxy     :     0.000287


                      *****************************
                      * MAYER POPULATION ANALYSIS *
                      *****************************

  NA   - Mulliken gross atomic population
  ZA   - Total nuclear charge
  QA   - Mulliken gross atomic charge
  VA   - Mayer's total valence
  BVA  - Mayer's bonded valence
  FA   - Mayer's free valence

  ATOM       NA         ZA         QA         VA         BVA        FA
  0 C      5.9465     6.0000     0.0535     3.6303     3.6245     0.0058
  1 H      1.0793     1.0000    -0.0793     1.0229     1.0200     0.0029
  2 H      1.0223     1.0000    -0.0223     1.3610     1.3606     0.0004
  3 C      6.7952     6.0000    -0.7952     3.3991     3.3683     0.0308
  4 H      0.8703     1.0000     0.1297     0.9717     0.9716     0.0001
  5 Si    13.7918    14.0000     0.2082     3.8224     3.2232     0.5992
  6 H      1.2779     1.0000    -0.2779     0.9955     0.9937     0.0018
  7 Li     2.2167     3.0000     0.7833     0.4579     0.4577     0.0001

  Mayer bond orders larger than 0.100000
B(  0-C ,  3-C ) :   1.4692 B(  0-C ,  4-H ) :   0.9619 B(  0-C ,  5-Si) :   1.1189 
B(  1-H ,  5-Si) :   0.9650 B(  2-H ,  3-C ) :   1.2351 B(  3-C ,  5-Si) :   0.2803 
B(  3-C ,  6-H ) :   0.1155 B(  3-C ,  7-Li) :   0.2442 B(  5-Si,  6-H ) :   0.7710 
B(  6-H ,  7-Li) :   0.1153 

-------
TIMINGS
-------

Total SCF time: 0 days 0 hours 0 min 7 sec 

Total time                  ....       7.465 sec
Sum of individual times     ....       7.185 sec  ( 96.2%)

Fock matrix formation       ....       6.525 sec  ( 87.4%)
  XC integration            ....       1.301 sec  ( 19.9% of F)
    Basis function eval.    ....       0.076 sec  (  5.9% of XC)
    Density eval.           ....       0.242 sec  ( 18.6% of XC)
    XC-Functional eval.     ....       0.040 sec  (  3.1% of XC)
    XC-Potential eval.      ....       0.543 sec  ( 41.7% of XC)
Diagonalization             ....       0.171 sec  (  2.3%)
Density matrix formation    ....       0.021 sec  (  0.3%)
Population analysis         ....       0.017 sec  (  0.2%)
Initial guess               ....       0.129 sec  (  1.7%)
Orbital Transformation      ....       0.000 sec  (  0.0%)
Orbital Orthonormalization  ....       0.000 sec  (  0.0%)
DIIS solution               ....       0.059 sec  (  0.8%)
Grid generation             ....       0.263 sec  (  3.5%)


-------------------------------------------------------------------------------
                          DFT DISPERSION CORRECTION                            
                                                                               
                              DFTD3 V3.1  Rev 1                                
                          USING Becke-Johnson damping                          
-------------------------------------------------------------------------------
The TPSSH functional is recognized
Active option DFTDOPT                   ...         4   

molecular C6(AA) [au] = 1463.301972 


            DFT-D V3
 parameters
 s6 scaling factor         :     1.0000 
 a1 scaling factor         :     0.4529 
 s8 scaling factor         :     2.2382 
 a2 scaling factor         :     4.6550 
 ad hoc parameters k1-k3   :    16.0000     1.3333    -4.0000 

 Edisp/kcal,au: -4.746320882782  -0.007563742975 
 E6   /kcal   :  -1.944490772 
 E8   /kcal   :  -2.801830111 
 % E8         :  59.031620069 

-------------------------   ----------------
Dispersion correction           -0.007563743
-------------------------   ----------------


-------------------------   --------------------
FINAL SINGLE POINT ENERGY      -375.612566127012
-------------------------   --------------------


                            ***************************************
                            *     ORCA property calculations      *
                            ***************************************

                                    ---------------------
                                    Active property flags
                                    ---------------------
   (+) Dipole Moment


------------------------------------------------------------------------------
                       ORCA ELECTRIC PROPERTIES CALCULATION
------------------------------------------------------------------------------

Dipole Moment Calculation                       ... on
Quadrupole Moment Calculation                   ... off
Polarizability Calculation                      ... off
GBWName                                         ... 104.gbw
Electron density file                           ... 104.scfp
The origin for moment calculation is the CENTER OF MASS  = (-0.500057, -0.135647 -0.285939)

-------------
DIPOLE MOMENT
-------------
                                X             Y             Z
Electronic contribution:      1.21374      -4.38187      -1.17536
Nuclear contribution   :     -0.90522       2.81558       1.17165
                        -----------------------------------------
Total Dipole Moment    :      0.30853      -1.56630      -0.00371
                        -----------------------------------------
Magnitude (a.u.)       :      1.59640
Magnitude (Debye)      :      4.05772



--------------------
Rotational spectrum 
--------------------
 
Rotational constants in cm-1:     0.419182     0.179284     0.128388 
Rotational constants in MHz : 12566.751634  5374.809128  3848.967152 

 Dipole components along the rotational axes: 
x,y,z [a.u.] :     0.308644     1.566273    -0.003707 
x,y,z [Debye]:     0.784511     3.981150    -0.009423 

 

Timings for individual modules:

Sum of individual times         ...        8.785 sec (=   0.146 min)
GTO integral calculation        ...        0.850 sec (=   0.014 min)   9.7 %
SCF iterations                  ...        7.935 sec (=   0.132 min)  90.3 %
                             ****ORCA TERMINATED NORMALLY****
TOTAL RUN TIME: 0 days 0 hours 0 minutes 9 seconds 393 msec
