
                                 *****************
                                 * O   R   C   A *
                                 *****************

           --- An Ab Initio, DFT and Semiempirical electronic structure package ---

                  #######################################################
                  #                        -***-                        #
                  #          Department of theory and spectroscopy      #
                  #               Directorship: Frank Neese             #
                  #        Max Planck Institute fuer Kohlenforschung    #
                  #                Kaiser Wilhelm Platz 1               #
                  #                 D-45470 Muelheim/Ruhr               #
                  #                      Germany                        #
                  #                                                     #
                  #                  All rights reserved                #
                  #                        -***-                        #
                  #######################################################


                         Program Version 4.2.0 -  RELEASE  -


 With contributions from (in alphabetic order):
   Daniel Aravena         : Magnetic Suceptibility
   Michael Atanasov       : Ab Initio Ligand Field Theory (pilot matlab implementation)
   Alexander A. Auer      : GIAO ZORA, VPT2
   Ute Becker             : Parallelization
   Giovanni Bistoni       : ED, misc. LED, open-shell LED, HFLED
   Martin Brehm           : Molecular dynamics
   Dmytro Bykov           : SCF Hessian
   Vijay G. Chilkuri      : MRCI spin determinant printing, contributions to CSF-ICE
   Dipayan Datta          : RHF DLPNO-CCSD density
   Achintya Kumar Dutta   : EOM-CC, STEOM-CC
   Dmitry Ganyushin       : Spin-Orbit,Spin-Spin,Magnetic field MRCI
   Miquel Garcia          : C-PCM Hessian, Gaussian charge scheme
   Yang Guo               : DLPNO-NEVPT2, CIM, IAO-localization
   Andreas Hansen         : Spin unrestricted coupled pair/coupled cluster methods
   Benjamin Helmich-Paris : CASSCF linear response (MC-RPA)
   Lee Huntington         : MR-EOM, pCC
   Robert Izsak           : Overlap fitted RIJCOSX, COSX-SCS-MP3, EOM
   Christian Kollmar      : KDIIS, OOCD, Brueckner-CCSD(T), CCSD density
   Simone Kossmann        : Meta GGA functionals, TD-DFT gradient, OOMP2, MP2 Hessian
   Martin Krupicka        : AUTO-CI
   Lucas Lang             : DCDCAS
   Dagmar Lenk            : GEPOL surface, SMD
   Dimitrios Liakos       : Extrapolation schemes; Compound Job, initial MDCI parallelization
   Dimitrios Manganas     : Further ROCIS development; embedding schemes
   Dimitrios Pantazis     : SARC Basis sets
   Taras Petrenko         : DFT Hessian,TD-DFT gradient, ASA, ECA, R-Raman, ABS, FL, XAS/XES, NRVS
   Peter Pinski           : DLPNO-MP2, DLPNO-MP2 Gradient
   Christoph Reimann      : Effective Core Potentials
   Marius Retegan         : Local ZFS, SOC
   Christoph Riplinger    : Optimizer, TS searches, QM/MM, DLPNO-CCSD(T), (RO)-DLPNO pert. Triples
   Tobias Risthaus        : Range-separated hybrids, TD-DFT gradient, RPA, STAB
   Michael Roemelt        : Original ROCIS implementation
   Masaaki Saitow         : Open-shell DLPNO-CCSD energy and density
   Barbara Sandhoefer     : DKH picture change effects
   Avijit Sen             : IP-ROCIS
   Kantharuban Sivalingam : CASSCF convergence, NEVPT2, FIC-MRCI
   Bernardo de Souza      : ESD, SOC TD-DFT
   Georgi Stoychev        : AutoAux, RI-MP2 NMR
   Willem Van den Heuvel  : Paramagnetic NMR
   Boris Wezisla          : Elementary symmetry handling
   Frank Wennmohs         : Technical directorship


 We gratefully acknowledge several colleagues who have allowed us to
 interface, adapt or use parts of their codes:
   Stefan Grimme, W. Hujo, H. Kruse,             : VdW corrections, initial TS optimization,
                  C. Bannwarth                     DFT functionals, gCP, sTDA/sTD-DF
   Ed Valeev, F. Pavosevic, A. Kumar             : LibInt (2-el integral package), F12 methods
   Garnet Chan, S. Sharma, J. Yang, R. Olivares  : DMRG
   Ulf Ekstrom                                   : XCFun DFT Library
   Mihaly Kallay                                 : mrcc  (arbitrary order and MRCC methods)
   Andreas Klamt, Michael Diedenhofen            : otool_cosmo (COSMO solvation model)
   Jiri Pittner, Ondrej Demel                    : Mk-CCSD
   Frank Weinhold                                : gennbo (NPA and NBO analysis)
   Christopher J. Cramer and Donald G. Truhlar   : smd solvation model
   Lars Goerigk                                  : TD-DFT with DH, B97 family of functionals
   V. Asgeirsson, H. Jonsson                     : NEB implementation
   FAccTs GmbH                                   : IRC, NEB, NEB-TS, Multilevel, MM, QM/MM, CI optimization
   S Lehtola, MJT Oliveira, MAL Marques          : LibXC Library


 Your calculation uses the libint2 library for the computation of 2-el integrals
 For citations please refer to: http://libint.valeyev.net

 Your ORCA version has been built with support for libXC version: 4.2.3
 For citations please refer to: https://tddft.org/programs/libxc/

 This ORCA versions uses:
   CBLAS   interface :  Fast vector & matrix operations
   LAPACKE interface :  Fast linear algebra routines
   SCALAPACK package :  Parallel linear algebra routines


Your calculation utilizes the atom-pairwise dispersion correction
with the Becke-Johnson damping scheme (D3BJ)
Cite in your paper:
S.Grimme, S.Ehrlich, L.Goerigk, J Comput Chem, (2011), 32, 1456–1465 
S.Grimme, J.Antony, S.Ehrlich and H.Krieg, J.Chem.Phys., 132, (2010), 154104 
   

----- Orbital basis set information -----
Your calculation utilizes the basis: def2-TZVPPD
   F. Weigend and R. Ahlrichs, Phys. Chem. Chem. Phys. 7, 3297 (2005).
   D. Rappoport and F. Furche, J. Chem. Phys. 133 134105 (2010).

----- AuxJK basis set information -----
Your calculation utilizes the auxiliary basis: def2/JK
   H-Ba, Hf-Rn: F. Weigend, J. Comput. Chem. 29, 167 (2008).

================================================================================
                                        WARNINGS
                       Please study these warnings very carefully!
================================================================================


WARNING: your system is open-shell and RHF/RKS was chosen
  ===> : WILL SWITCH to UHF/UKS


INFO   : the flag for use of LIBINT has been found!

================================================================================
                                       INPUT FILE
================================================================================
NAME = 111.in
|  1> #
|  2> # 111 TPSSh-D3BJ/Def2-TZVPPD
|  3> #
|  4> ! tpssh d3bj def2-tzvppd def2/jk grid4 nofinalgrid
|  5> 
|  6> *xyz 0 2
|  7> N          0.85218        0.06581        1.54293
|  8> C         -0.45432        0.04016        1.51127
|  9> H          0.51389       -1.04630       -1.15231
| 10> H         -1.27128       -0.21181        2.19239
| 11> H          0.93075        0.61434       -1.62997
| 12> C          0.02563        0.43731        0.29642
| 13> C          0.17679        0.00817       -1.10677
| 14> H         -0.77364        0.09232       -1.65395
| 15> *
| 16> 
| 17> %maxcore 5000
| 18> 
| 19> %pal
| 20> nprocs = 24
| 21> end
| 22> 
| 23> 
| 24>                          ****END OF INPUT****
================================================================================

                       ****************************
                       * Single Point Calculation *
                       ****************************

---------------------------------
CARTESIAN COORDINATES (ANGSTROEM)
---------------------------------
  N      0.852180    0.065810    1.542930
  C     -0.454320    0.040160    1.511270
  H      0.513890   -1.046300   -1.152310
  H     -1.271280   -0.211810    2.192390
  H      0.930750    0.614340   -1.629970
  C      0.025630    0.437310    0.296420
  C      0.176790    0.008170   -1.106770
  H     -0.773640    0.092320   -1.653950

----------------------------
CARTESIAN COORDINATES (A.U.)
----------------------------
  NO LB      ZA    FRAG     MASS         X           Y           Z
   0 N     7.0000    0    14.007    1.610387    0.124363    2.915715
   1 C     6.0000    0    12.011   -0.858540    0.075891    2.855886
   2 H     1.0000    0     1.008    0.971111   -1.977220   -2.177550
   3 H     1.0000    0     1.008   -2.402371   -0.400263    4.143017
   4 H     1.0000    0     1.008    1.758863    1.160934   -3.080197
   5 C     6.0000    0    12.011    0.048434    0.826396    0.560153
   6 C     6.0000    0    12.011    0.334085    0.015439   -2.091492
   7 H     1.0000    0     1.008   -1.461968    0.174460   -3.125513

--------------------------------
INTERNAL COORDINATES (ANGSTROEM)
--------------------------------
 N      0   0   0     0.000000000000     0.00000000     0.00000000
 C      1   0   0     1.307135237112     0.00000000     0.00000000
 H      1   2   0     2.935225278203    81.67017624     0.00000000
 H      2   1   3     1.093085987880   137.43041478   139.02903699
 H      3   1   2     1.777542276516    82.28499110   103.37290660
 C      2   1   3     1.365262116775    70.39527927   320.08891276
 C      5   3   1     1.099834528691    36.53469412   295.81076797
 H      7   5   3     1.099911069041   108.27253573   243.24977301

---------------------------
INTERNAL COORDINATES (A.U.)
---------------------------
 N      0   0   0     0.000000000000     0.00000000     0.00000000
 C      1   0   0     2.470127618140     0.00000000     0.00000000
 H      1   2   0     5.546771917166    81.67017624     0.00000000
 H      2   1   3     2.065633157920   137.43041478   139.02903699
 H      3   1   2     3.359068094081    82.28499110   103.37290660
 C      2   1   3     2.579971501722    70.39527927   320.08891276
 C      5   3   1     2.078386051856    36.53469412   295.81076797
 H      7   5   3     2.078530692157   108.27253573   243.24977301

---------------------
BASIS SET INFORMATION
---------------------
There are 3 groups of distinct atoms

 Group   1 Type N   : 12s6p3d1f contracted to 6s3p3d1f pattern {621111/411/111/1}
 Group   2 Type C   : 12s6p3d1f contracted to 6s3p3d1f pattern {621111/411/111/1}
 Group   3 Type H   : 5s3p1d contracted to 3s3p1d pattern {311/111/1}

Atom   0N    basis set group =>   1
Atom   1C    basis set group =>   2
Atom   2H    basis set group =>   3
Atom   3H    basis set group =>   3
Atom   4H    basis set group =>   3
Atom   5C    basis set group =>   2
Atom   6C    basis set group =>   2
Atom   7H    basis set group =>   3
----------------------------------
AUXILIARY/JK BASIS SET INFORMATION
----------------------------------
There are 3 groups of distinct atoms

 Group   1 Type N   : 14s10p6d2f1g contracted to 10s8p4d2f1g pattern {5111111111/31111111/3111/11/1}
 Group   2 Type C   : 14s10p6d2f1g contracted to 10s8p5d1f1g pattern {5111111111/31111111/21111/2/1}
 Group   3 Type H   : 4s2p2d contracted to 2s2p2d pattern {31/11/11}

Atom   0N    basis set group =>   1
Atom   1C    basis set group =>   2
Atom   2H    basis set group =>   3
Atom   3H    basis set group =>   3
Atom   4H    basis set group =>   3
Atom   5C    basis set group =>   2
Atom   6C    basis set group =>   2
Atom   7H    basis set group =>   3


           ************************************************************
           *        Program running with 24 parallel MPI-processes    *
           *              working on a common directory               *
           ************************************************************
------------------------------------------------------------------------------
                           ORCA GTO INTEGRAL CALCULATION
------------------------------------------------------------------------------

                         BASIS SET STATISTICS AND STARTUP INFO

 # of primitive gaussian shells          ...  124
 # of primitive gaussian functions       ...  284
 # of contracted shells                  ...   80
 # of contracted basis functions         ...  216
 Highest angular momentum                ...    3
 Maximum contraction depth               ...    6
 Integral package used                   ... LIBINT
 Integral threshhold            Thresh   ...  1.000e-10
 Primitive cut-off              TCut     ...  1.000e-11


------------------------------ INTEGRAL EVALUATION ----------------------------


 * One electron integrals 
 Pre-screening matrix                    ... done
 Shell pair data                         ... done (   0.001 sec)



           ************************************************************
           *        Program running with 24 parallel MPI-processes    *
           *              working on a common directory               *
           ************************************************************
-------------------------------------------------------------------------------
                                 ORCA SCF
-------------------------------------------------------------------------------

------------
SCF SETTINGS
------------
Hamiltonian:
 Density Functional     Method          .... DFT(GTOs)
 Exchange Functional    Exchange        .... TPSS
 Correlation Functional Correlation     .... TPSS
 LDA part of GGA corr.  LDAOpt          .... PW91-LDA
 Gradients option       PostSCFGGA      .... off
 Hybrid DFT is turned on
   Fraction HF Exchange ScalHFX         ....  0.100000
   Scaling of DF-GGA-X  ScalDFX         ....  0.900000
   Scaling of DF-GGA-C  ScalDFC         ....  1.000000
   Scaling of DF-LDA-C  ScalLDAC        ....  1.000000
   Perturbative correction              ....  0.000000
   Density functional embedding theory  .... OFF
   NL short-range parameter             ....  5.200000


General Settings:
 Integral files         IntName         .... 111
 Hartree-Fock type      HFTyp           .... UHF
 Total Charge           Charge          ....    0
 Multiplicity           Mult            ....    2
 Number of Electrons    NEL             ....   29
 Basis Dimension        Dim             ....  216
 Nuclear Repulsion      ENuc            ....    101.0465732234 Eh

Convergence Acceleration:
 DIIS                   CNVDIIS         .... on
   Start iteration      DIISMaxIt       ....    12
   Startup error        DIISStart       ....  0.200000
   # of expansion vecs  DIISMaxEq       ....     5
   Bias factor          DIISBfac        ....   1.050
   Max. coefficient     DIISMaxC        ....  10.000
 Newton-Raphson         CNVNR           .... off
 SOSCF                  CNVSOSCF        .... off
 Level Shifting         CNVShift        .... on
   Level shift para.    LevelShift      ....    0.2500
   Turn off err/grad.   ShiftErr        ....    0.0010
 Zerner damping         CNVZerner       .... off
 Static damping         CNVDamp         .... on
   Fraction old density DampFac         ....    0.7000
   Max. Damping (<1)    DampMax         ....    0.9800
   Min. Damping (>=0)   DampMin         ....    0.0000
   Turn off err/grad.   DampErr         ....    0.1000
 Fernandez-Rico         CNVRico         .... off

SCF Procedure:
 Maximum # iterations   MaxIter         ....   125
 SCF integral mode      SCFMode         .... Direct
   Integral package                     .... LIBINT
 Reset frequency        DirectResetFreq ....    20
 Integral Threshold     Thresh          ....  1.000e-10 Eh
 Primitive CutOff       TCut            ....  1.000e-11 Eh

Convergence Tolerance:
 Convergence Check Mode ConvCheckMode   .... Total+1el-Energy
 Convergence forced     ConvForced      .... 0
 Energy Change          TolE            ....  1.000e-06 Eh
 1-El. energy change                    ....  1.000e-03 Eh
 DIIS Error             TolErr          ....  1.000e-06


Diagonalization of the overlap matrix:
Smallest eigenvalue                        ... 4.466e-06
Time for diagonalization                   ...    0.010 sec
Threshold for overlap eigenvalues          ... 1.000e-08
Number of eigenvalues below threshold      ... 0
Time for construction of square roots      ...    0.006 sec
Total time needed                          ...    0.016 sec

-------------------
DFT GRID GENERATION
-------------------

General Integration Accuracy     IntAcc      ...  4.670
Radial Grid Type                 RadialGrid  ... Gauss-Chebyshev
Angular Grid (max. acc.)         AngularGrid ... Lebedev-302
Angular grid pruning method      GridPruning ... 3 (G Style)
Weight generation scheme         WeightScheme... Becke
Basis function cutoff            BFCut       ...    1.0000e-10
Integration weight cutoff        WCut        ...    1.0000e-14
Grids for H and He will be reduced by one unit

# of grid points (after initial pruning)     ...  38424 (   0.0 sec)
# of grid points (after weights+screening)   ...  36730 (   0.0 sec)
nearest neighbour list constructed           ...    0.0 sec
Grid point re-assignment to atoms done       ...    0.0 sec
Grid point division into batches done        ...    0.1 sec
Reduced shell lists constructed in    0.2 sec

Total number of grid points                  ...    36730
Total number of batches                      ...      577
Average number of points per batch           ...       63
Average number of grid points per atom       ...     4591
Average number of shells per batch           ...    30.42 (38.03%)
Average number of basis functions per batch  ...    78.88 (36.52%)
Average number of large shells per batch     ...    22.92 (75.35%)
Average number of large basis fcns per batch ...    58.38 (74.01%)
Maximum spatial batch extension              ...  14.42, 17.08, 15.01 au
Average spatial batch extension              ...   0.32,  0.40,  0.33 au

Time for grid setup =    0.197 sec

------------------------------
INITIAL GUESS: MODEL POTENTIAL
------------------------------
Loading Hartree-Fock densities                     ... done
Calculating cut-offs                               ... done
Setting up the integral package                    ... done
Initializing the effective Hamiltonian             ... done
Starting the Coulomb interaction                   ... done (   0.0 sec)
Reading the grid                                   ... done
Mapping shells                                     ... done
Starting the XC term evaluation                    ... done (   0.0 sec)
  promolecular density results
     # of electrons  =     28.998033466
     EX              =    -22.965630809
     EC              =     -0.928702934
     EX+EC           =    -23.894333743
Transforming the Hamiltonian                       ... done (   0.0 sec)
Diagonalizing the Hamiltonian                      ... done (   0.0 sec)
Back transforming the eigenvectors                 ... done (   0.0 sec)
Now organizing SCF variables                       ... done
                      ------------------
                      INITIAL GUESS DONE (   0.3 sec)
                      ------------------
--------------
SCF ITERATIONS
--------------
ITER       Energy         Delta-E        Max-DP      RMS-DP      [F,P]     Damp
               ***  Starting incremental Fock matrix formation  ***
  0   -171.3055748249   0.000000000000 0.03362823  0.00071078  0.1640719 0.7000
  1   -171.3553410952  -0.049766270335 0.03080358  0.00060882  0.0875324 0.7000
                               ***Turning on DIIS***
  2   -171.3739370445  -0.018595949301 0.06155615  0.00130804  0.0345139 0.0000
  3   -171.4035676211  -0.029630576569 0.03607734  0.00041160  0.0488099 0.0000
  4   -171.4110750599  -0.007507438781 0.01137994  0.00015918  0.0188386 0.0000
  5   -171.4119674592  -0.000892399275 0.00893776  0.00010615  0.0041842 0.0000
  6   -171.4121628343  -0.000195375140 0.00387428  0.00005650  0.0012324 0.0000
  7   -171.4122444137  -0.000081579391 0.00370680  0.00006845  0.0009756 0.0000
  8   -171.4123022373  -0.000057823610 0.00150549  0.00002887  0.0009864 0.0000
  9   -171.4123148407  -0.000012603395 0.00061919  0.00000809  0.0000935 0.0000
 10   -171.4123157246  -0.000000883893 0.00017999  0.00000288  0.0000640 0.0000
                 **** Energy Check signals convergence ****

               *****************************************************
               *                     SUCCESS                       *
               *           SCF CONVERGED AFTER  11 CYCLES          *
               *****************************************************


----------------
TOTAL SCF ENERGY
----------------

Total Energy       :         -171.41231583 Eh           -4664.36625 eV

Components:
Nuclear Repulsion  :          101.04657322 Eh            2749.61705 eV
Electronic Energy  :         -272.45888906 Eh           -7413.98329 eV
One Electron Energy:         -429.81743804 Eh          -11695.92710 eV
Two Electron Energy:          157.35854898 Eh            4281.94381 eV

Virial components:
Potential Energy   :         -341.94066589 Eh           -9304.67856 eV
Kinetic Energy     :          170.52835005 Eh            4640.31231 eV
Virial Ratio       :            2.00518369


DFT components:
N(Alpha)           :       15.000006495404 electrons
N(Beta)            :       14.000003148715 electrons
N(Total)           :       29.000009644120 electrons
E(X)               :      -21.327170279666 Eh       
E(C)               :       -0.939826420531 Eh       
E(XC)              :      -22.266996700197 Eh       
DFET-embed. en.    :        0.000000000000 Eh       

---------------
SCF CONVERGENCE
---------------

  Last Energy change         ...   -1.0777e-07  Tolerance :   1.0000e-06
  Last MAX-Density change    ...    2.6823e-04  Tolerance :   1.0000e-05
  Last RMS-Density change    ...    3.2313e-06  Tolerance :   1.0000e-06
  Last DIIS Error            ...    1.9831e-05  Tolerance :   1.0000e-06

             **** THE GBW FILE WAS UPDATED (111.gbw) ****
             **** DENSITY FILE WAS UPDATED (111.scfp) ****
             **** ENERGY FILE WAS UPDATED (111.en.tmp) ****
----------------------
UHF SPIN CONTAMINATION
----------------------

Warning: in a DFT calculation there is little theoretical justification to 
         calculate <S**2> as in Hartree-Fock theory. We will do it anyways
         but you should keep in mind that the values have only limited relevance

Expectation value of <S**2>     :     0.776899
Ideal value S*(S+1) for S=0.5   :     0.750000
Deviation                       :     0.026899

             **** THE GBW FILE WAS UPDATED (111.gbw) ****
             **** DENSITY FILE WAS UPDATED (111.scfp) ****
----------------
ORBITAL ENERGIES
----------------
                 SPIN UP ORBITALS
  NO   OCC          E(Eh)            E(eV) 
   0   1.0000     -14.274411      -388.4265 
   1   1.0000     -10.183641      -277.1110 
   2   1.0000     -10.164132      -276.5801 
   3   1.0000     -10.132505      -275.7195 
   4   1.0000      -0.968560       -26.3559 
   5   1.0000      -0.733325       -19.9548 
   6   1.0000      -0.586530       -15.9603 
   7   1.0000      -0.561220       -15.2716 
   8   1.0000      -0.448422       -12.2022 
   9   1.0000      -0.434280       -11.8174 
  10   1.0000      -0.411845       -11.2069 
  11   1.0000      -0.374327       -10.1859 
  12   1.0000      -0.340737        -9.2719 
  13   1.0000      -0.273592        -7.4448 
  14   1.0000      -0.174511        -4.7487 
  15   0.0000      -0.053537        -1.4568 
  16   0.0000       0.010793         0.2937 
  17   0.0000       0.026382         0.7179 
  18   0.0000       0.050202         1.3661 
  19   0.0000       0.059415         1.6168 
  20   0.0000       0.067174         1.8279 
  21   0.0000       0.076164         2.0725 
  22   0.0000       0.105015         2.8576 
  23   0.0000       0.115040         3.1304 
  24   0.0000       0.119178         3.2430 
  25   0.0000       0.128956         3.5091 
  26   0.0000       0.145433         3.9574 
  27   0.0000       0.161551         4.3960 
  28   0.0000       0.176344         4.7986 
  29   0.0000       0.185520         5.0482 
  30   0.0000       0.196899         5.3579 
  31   0.0000       0.217385         5.9154 
  32   0.0000       0.226723         6.1694 
  33   0.0000       0.234589         6.3835 
  34   0.0000       0.239687         6.5222 
  35   0.0000       0.256045         6.9673 
  36   0.0000       0.260620         7.0918 
  37   0.0000       0.269033         7.3208 
  38   0.0000       0.272761         7.4222 
  39   0.0000       0.278180         7.5697 
  40   0.0000       0.286693         7.8013 
  41   0.0000       0.289733         7.8840 
  42   0.0000       0.302186         8.2229 
  43   0.0000       0.307212         8.3597 
  44   0.0000       0.318395         8.6640 
  45   0.0000       0.323809         8.8113 
  46   0.0000       0.342213         9.3121 
  47   0.0000       0.364570         9.9205 
  48   0.0000       0.372886        10.1467 
  49   0.0000       0.394129        10.7248 
  50   0.0000       0.396638        10.7931 
  51   0.0000       0.405650        11.0383 
  52   0.0000       0.419512        11.4155 
  53   0.0000       0.441648        12.0179 
  54   0.0000       0.446205        12.1419 
  55   0.0000       0.457986        12.4624 
  56   0.0000       0.474994        12.9252 
  57   0.0000       0.496221        13.5029 
  58   0.0000       0.511136        13.9087 
  59   0.0000       0.531057        14.4508 
  60   0.0000       0.544529        14.8174 
  61   0.0000       0.555344        15.1117 
  62   0.0000       0.570243        15.5171 
  63   0.0000       0.581967        15.8361 
  64   0.0000       0.603649        16.4261 
  65   0.0000       0.617478        16.8024 
  66   0.0000       0.629554        17.1310 
  67   0.0000       0.641784        17.4638 
  68   0.0000       0.654249        17.8030 
  69   0.0000       0.667223        18.1561 
  70   0.0000       0.675624        18.3847 
  71   0.0000       0.683960        18.6115 
  72   0.0000       0.698632        19.0108 
  73   0.0000       0.710293        19.3280 
  74   0.0000       0.728199        19.8153 
  75   0.0000       0.744828        20.2678 
  76   0.0000       0.759047        20.6547 
  77   0.0000       0.772448        21.0194 
  78   0.0000       0.812430        22.1074 
  79   0.0000       0.836993        22.7757 
  80   0.0000       0.847668        23.0662 
  81   0.0000       0.869493        23.6601 
  82   0.0000       0.908139        24.7117 
  83   0.0000       0.937284        25.5048 
  84   0.0000       0.974616        26.5207 
  85   0.0000       1.006641        27.3921 
  86   0.0000       1.016929        27.6720 
  87   0.0000       1.062457        28.9109 
  88   0.0000       1.091553        29.7027 
  89   0.0000       1.130910        30.7736 
  90   0.0000       1.162839        31.6425 
  91   0.0000       1.185265        32.2527 
  92   0.0000       1.214272        33.0420 
  93   0.0000       1.228486        33.4288 
  94   0.0000       1.262900        34.3652 
  95   0.0000       1.318388        35.8752 
  96   0.0000       1.326413        36.0935 
  97   0.0000       1.330267        36.1984 
  98   0.0000       1.438539        39.1446 
  99   0.0000       1.445430        39.3321 
 100   0.0000       1.501340        40.8535 
 101   0.0000       1.507456        41.0200 
 102   0.0000       1.555061        42.3154 
 103   0.0000       1.557737        42.3882 
 104   0.0000       1.582734        43.0684 
 105   0.0000       1.598504        43.4975 
 106   0.0000       1.614889        43.9434 
 107   0.0000       1.620728        44.1022 
 108   0.0000       1.638184        44.5772 
 109   0.0000       1.686541        45.8931 
 110   0.0000       1.702679        46.3323 
 111   0.0000       1.761431        47.9310 
 112   0.0000       1.786710        48.6189 
 113   0.0000       1.819146        49.5015 
 114   0.0000       1.863752        50.7153 
 115   0.0000       1.873796        50.9886 
 116   0.0000       1.975381        53.7528 
 117   0.0000       2.059446        56.0404 
 118   0.0000       2.095146        57.0118 
 119   0.0000       2.171274        59.0834 
 120   0.0000       2.232625        60.7528 
 121   0.0000       2.329592        63.3914 
 122   0.0000       2.371301        64.5264 
 123   0.0000       2.423478        65.9462 
 124   0.0000       2.513387        68.3927 
 125   0.0000       2.514830        68.4320 
 126   0.0000       2.586155        70.3729 
 127   0.0000       2.637966        71.7827 
 128   0.0000       2.682835        73.0036 
 129   0.0000       2.719274        73.9952 
 130   0.0000       2.777975        75.5925 
 131   0.0000       2.784429        75.7682 
 132   0.0000       2.807318        76.3910 
 133   0.0000       2.835621        77.1612 
 134   0.0000       2.851914        77.6045 
 135   0.0000       2.887510        78.5732 
 136   0.0000       2.945247        80.1442 
 137   0.0000       2.950604        80.2900 
 138   0.0000       2.990473        81.3749 
 139   0.0000       2.995961        81.5242 
 140   0.0000       3.038243        82.6748 
 141   0.0000       3.078623        83.7736 
 142   0.0000       3.094181        84.1970 
 143   0.0000       3.116733        84.8106 
 144   0.0000       3.152595        85.7865 
 145   0.0000       3.167426        86.1900 
 146   0.0000       3.174120        86.3722 
 147   0.0000       3.213965        87.4564 
 148   0.0000       3.262687        88.7822 
 149   0.0000       3.274310        89.0985 
 150   0.0000       3.317354        90.2698 
 151   0.0000       3.332022        90.6689 
 152   0.0000       3.363389        91.5225 
 153   0.0000       3.404158        92.6319 
 154   0.0000       3.421091        93.0926 
 155   0.0000       3.458363        94.1068 
 156   0.0000       3.511372        95.5493 
 157   0.0000       3.538836        96.2966 
 158   0.0000       3.570221        97.1507 
 159   0.0000       3.634458        98.8986 
 160   0.0000       3.669541        99.8533 
 161   0.0000       3.701436       100.7212 
 162   0.0000       3.734971       101.6337 
 163   0.0000       3.774082       102.6980 
 164   0.0000       3.802876       103.4815 
 165   0.0000       3.834798       104.3501 
 166   0.0000       3.908080       106.3443 
 167   0.0000       3.963210       107.8444 
 168   0.0000       4.023241       109.4779 
 169   0.0000       4.038673       109.8979 
 170   0.0000       4.047938       110.1500 
 171   0.0000       4.077064       110.9426 
 172   0.0000       4.086362       111.1956 
 173   0.0000       4.144932       112.7893 
 174   0.0000       4.186557       113.9220 
 175   0.0000       4.212096       114.6169 
 176   0.0000       4.238713       115.3412 
 177   0.0000       4.260062       115.9222 
 178   0.0000       4.314227       117.3961 
 179   0.0000       4.368873       118.8831 
 180   0.0000       4.408465       119.9604 
 181   0.0000       4.409395       119.9857 
 182   0.0000       4.523277       123.0846 
 183   0.0000       4.535754       123.4241 
 184   0.0000       4.642069       126.3171 
 185   0.0000       4.665973       126.9676 
 186   0.0000       4.727864       128.6517 
 187   0.0000       4.788669       130.3063 
 188   0.0000       4.835302       131.5753 
 189   0.0000       4.856172       132.1432 
 190   0.0000       4.944607       134.5496 
 191   0.0000       4.993032       135.8673 
 192   0.0000       4.998585       136.0184 
 193   0.0000       5.109910       139.0477 
 194   0.0000       5.139173       139.8440 
 195   0.0000       5.189856       141.2232 
 196   0.0000       5.275133       143.5437 
 197   0.0000       5.319952       144.7633 
 198   0.0000       5.345070       145.4467 
 199   0.0000       5.359553       145.8409 
 200   0.0000       5.413538       147.3099 
 201   0.0000       5.444429       148.1504 
 202   0.0000       5.472725       148.9204 
 203   0.0000       5.498031       149.6090 
 204   0.0000       5.537339       150.6787 
 205   0.0000       5.675106       154.4275 
 206   0.0000       5.745630       156.3466 
 207   0.0000       5.785324       157.4267 
 208   0.0000       5.814410       158.2181 
 209   0.0000       5.841483       158.9548 
 210   0.0000       5.877690       159.9401 
 211   0.0000       6.095954       165.8793 
 212   0.0000      22.976684       625.2274 
 213   0.0000      23.466965       638.5686 
 214   0.0000      23.621049       642.7614 
 215   0.0000      32.391562       881.4192 

                 SPIN DOWN ORBITALS
  NO   OCC          E(Eh)            E(eV) 
   0   1.0000     -14.264462      -388.1557 
   1   1.0000     -10.186530      -277.1896 
   2   1.0000     -10.151478      -276.2358 
   3   1.0000     -10.132366      -275.7157 
   4   1.0000      -0.956363       -26.0240 
   5   1.0000      -0.725918       -19.7532 
   6   1.0000      -0.583893       -15.8885 
   7   1.0000      -0.544928       -14.8283 
   8   1.0000      -0.441029       -12.0010 
   9   1.0000      -0.413065       -11.2401 
  10   1.0000      -0.407834       -11.0977 
  11   1.0000      -0.353495        -9.6191 
  12   1.0000      -0.332385        -9.0447 
  13   1.0000      -0.263844        -7.1796 
  14   0.0000      -0.060823        -1.6551 
  15   0.0000      -0.034604        -0.9416 
  16   0.0000       0.014357         0.3907 
  17   0.0000       0.026793         0.7291 
  18   0.0000       0.056851         1.5470 
  19   0.0000       0.064473         1.7544 
  20   0.0000       0.071728         1.9518 
  21   0.0000       0.080553         2.1920 
  22   0.0000       0.110201         2.9987 
  23   0.0000       0.118088         3.2133 
  24   0.0000       0.121488         3.3059 
  25   0.0000       0.134299         3.6545 
  26   0.0000       0.147719         4.0196 
  27   0.0000       0.165176         4.4947 
  28   0.0000       0.179456         4.8833 
  29   0.0000       0.191240         5.2039 
  30   0.0000       0.200532         5.4568 
  31   0.0000       0.223342         6.0775 
  32   0.0000       0.232176         6.3178 
  33   0.0000       0.237473         6.4620 
  34   0.0000       0.245700         6.6858 
  35   0.0000       0.257254         7.0002 
  36   0.0000       0.267330         7.2744 
  37   0.0000       0.272398         7.4123 
  38   0.0000       0.276461         7.5229 
  39   0.0000       0.281814         7.6685 
  40   0.0000       0.291131         7.9221 
  41   0.0000       0.292621         7.9626 
  42   0.0000       0.306808         8.3487 
  43   0.0000       0.311681         8.4813 
  44   0.0000       0.325187         8.8488 
  45   0.0000       0.330092         8.9823 
  46   0.0000       0.346980         9.4418 
  47   0.0000       0.370002        10.0683 
  48   0.0000       0.376938        10.2570 
  49   0.0000       0.396441        10.7877 
  50   0.0000       0.399746        10.8776 
  51   0.0000       0.408413        11.1135 
  52   0.0000       0.423573        11.5260 
  53   0.0000       0.444880        12.1058 
  54   0.0000       0.448731        12.2106 
  55   0.0000       0.463313        12.6074 
  56   0.0000       0.479117        13.0374 
  57   0.0000       0.502538        13.6747 
  58   0.0000       0.513632        13.9767 
  59   0.0000       0.538965        14.6660 
  60   0.0000       0.550483        14.9794 
  61   0.0000       0.562387        15.3033 
  62   0.0000       0.574078        15.6215 
  63   0.0000       0.586618        15.9627 
  64   0.0000       0.609616        16.5885 
  65   0.0000       0.621360        16.9081 
  66   0.0000       0.634905        17.2766 
  67   0.0000       0.656384        17.8611 
  68   0.0000       0.657404        17.8889 
  69   0.0000       0.674122        18.3438 
  70   0.0000       0.679812        18.4986 
  71   0.0000       0.687181        18.6992 
  72   0.0000       0.704944        19.1825 
  73   0.0000       0.716421        19.4948 
  74   0.0000       0.733627        19.9630 
  75   0.0000       0.751734        20.4557 
  76   0.0000       0.764542        20.8043 
  77   0.0000       0.781275        21.2596 
  78   0.0000       0.816918        22.2295 
  79   0.0000       0.849438        23.1144 
  80   0.0000       0.853863        23.2348 
  81   0.0000       0.877964        23.8906 
  82   0.0000       0.921596        25.0779 
  83   0.0000       0.944729        25.7074 
  84   0.0000       0.980230        26.6734 
  85   0.0000       1.011539        27.5254 
  86   0.0000       1.021067        27.7847 
  87   0.0000       1.064993        28.9799 
  88   0.0000       1.096391        29.8343 
  89   0.0000       1.138570        30.9821 
  90   0.0000       1.172210        31.8974 
  91   0.0000       1.189013        32.3547 
  92   0.0000       1.220515        33.2119 
  93   0.0000       1.236503        33.6470 
  94   0.0000       1.266134        34.4533 
  95   0.0000       1.323209        36.0063 
  96   0.0000       1.335085        36.3295 
  97   0.0000       1.338193        36.4141 
  98   0.0000       1.445193        39.3257 
  99   0.0000       1.453345        39.5475 
 100   0.0000       1.515770        41.2462 
 101   0.0000       1.523521        41.4571 
 102   0.0000       1.559926        42.4477 
 103   0.0000       1.565954        42.6118 
 104   0.0000       1.590088        43.2685 
 105   0.0000       1.614229        43.9254 
 106   0.0000       1.621303        44.1179 
 107   0.0000       1.633230        44.4424 
 108   0.0000       1.642520        44.6952 
 109   0.0000       1.691915        46.0394 
 110   0.0000       1.711168        46.5632 
 111   0.0000       1.762415        47.9578 
 112   0.0000       1.806360        49.1535 
 113   0.0000       1.828042        49.7436 
 114   0.0000       1.867622        50.8206 
 115   0.0000       1.888276        51.3826 
 116   0.0000       1.980877        53.9024 
 117   0.0000       2.070012        56.3279 
 118   0.0000       2.105331        57.2890 
 119   0.0000       2.188310        59.5469 
 120   0.0000       2.244883        61.0864 
 121   0.0000       2.340491        63.6880 
 122   0.0000       2.400001        65.3073 
 123   0.0000       2.438083        66.3436 
 124   0.0000       2.524575        68.6972 
 125   0.0000       2.528851        68.8135 
 126   0.0000       2.601929        70.8021 
 127   0.0000       2.654094        72.2216 
 128   0.0000       2.689492        73.1848 
 129   0.0000       2.720290        74.0229 
 130   0.0000       2.787738        75.8582 
 131   0.0000       2.791015        75.9474 
 132   0.0000       2.812200        76.5238 
 133   0.0000       2.845805        77.4383 
 134   0.0000       2.861825        77.8742 
 135   0.0000       2.893009        78.7228 
 136   0.0000       2.953377        80.3655 
 137   0.0000       2.959338        80.5277 
 138   0.0000       2.999262        81.6141 
 139   0.0000       3.005674        81.7885 
 140   0.0000       3.052297        83.0572 
 141   0.0000       3.080795        83.8327 
 142   0.0000       3.100287        84.3631 
 143   0.0000       3.127735        85.1100 
 144   0.0000       3.157900        85.9308 
 145   0.0000       3.176268        86.4306 
 146   0.0000       3.177277        86.4581 
 147   0.0000       3.231927        87.9452 
 148   0.0000       3.268940        88.9524 
 149   0.0000       3.303561        89.8945 
 150   0.0000       3.335225        90.7561 
 151   0.0000       3.346604        91.0657 
 152   0.0000       3.369137        91.6789 
 153   0.0000       3.407163        92.7136 
 154   0.0000       3.432568        93.4049 
 155   0.0000       3.475965        94.5858 
 156   0.0000       3.517547        95.7173 
 157   0.0000       3.549138        96.5770 
 158   0.0000       3.577440        97.3471 
 159   0.0000       3.646700        99.2318 
 160   0.0000       3.672572        99.9358 
 161   0.0000       3.710240       100.9608 
 162   0.0000       3.745622       101.9236 
 163   0.0000       3.783688       102.9594 
 164   0.0000       3.814282       103.7919 
 165   0.0000       3.841734       104.5389 
 166   0.0000       3.918993       106.6412 
 167   0.0000       3.969521       108.0161 
 168   0.0000       4.030927       109.6871 
 169   0.0000       4.047577       110.1402 
 170   0.0000       4.054336       110.3241 
 171   0.0000       4.082062       111.0786 
 172   0.0000       4.091107       111.3247 
 173   0.0000       4.150990       112.9542 
 174   0.0000       4.195154       114.1559 
 175   0.0000       4.220471       114.8448 
 176   0.0000       4.251344       115.6849 
 177   0.0000       4.275139       116.3324 
 178   0.0000       4.321188       117.5855 
 179   0.0000       4.376124       119.0804 
 180   0.0000       4.418271       120.2273 
 181   0.0000       4.421493       120.3149 
 182   0.0000       4.532117       123.3252 
 183   0.0000       4.547546       123.7450 
 184   0.0000       4.654753       126.6623 
 185   0.0000       4.674932       127.2114 
 186   0.0000       4.745557       129.1332 
 187   0.0000       4.804109       130.7264 
 188   0.0000       4.859838       132.2429 
 189   0.0000       4.875990       132.6824 
 190   0.0000       4.966856       135.1550 
 191   0.0000       5.005506       136.2068 
 192   0.0000       5.022413       136.6668 
 193   0.0000       5.130582       139.6102 
 194   0.0000       5.154622       140.2644 
 195   0.0000       5.200353       141.5088 
 196   0.0000       5.284507       143.7987 
 197   0.0000       5.328077       144.9843 
 198   0.0000       5.358791       145.8201 
 199   0.0000       5.371565       146.1677 
 200   0.0000       5.421647       147.5305 
 201   0.0000       5.451404       148.3402 
 202   0.0000       5.479767       149.1120 
 203   0.0000       5.505498       149.8122 
 204   0.0000       5.544068       150.8618 
 205   0.0000       5.684925       154.6947 
 206   0.0000       5.747954       156.4098 
 207   0.0000       5.790626       157.5710 
 208   0.0000       5.830485       158.6556 
 209   0.0000       5.837620       158.8497 
 210   0.0000       5.883309       160.0930 
 211   0.0000       6.095037       165.8544 
 212   0.0000      22.994150       625.7026 
 213   0.0000      23.463944       638.4864 
 214   0.0000      23.621096       642.7627 
 215   0.0000      32.404409       881.7688 

                    ********************************
                    * MULLIKEN POPULATION ANALYSIS *
                    ********************************

--------------------------------------------
MULLIKEN ATOMIC CHARGES AND SPIN POPULATIONS
--------------------------------------------
   0 N :   -0.417646    0.412305
   1 C :    0.093561   -0.115705
   2 H :    0.054841    0.041094
   3 H :    0.016272    0.016019
   4 H :    0.014954    0.022447
   5 C :    0.181087    0.640670
   6 C :    0.011313   -0.011645
   7 H :    0.045618   -0.005185
Sum of atomic charges         :   -0.0000000
Sum of atomic spin populations:    1.0000000

-----------------------------------------------------
MULLIKEN REDUCED ORBITAL CHARGES AND SPIN POPULATIONS
-----------------------------------------------------
CHARGE
  0 N s       :     4.056461  s :     4.056461
      pz      :     1.125092  p :     3.287867
      px      :     1.100890
      py      :     1.061884
      dz2     :     0.013262  d :     0.069668
      dxz     :     0.017892
      dyz     :     0.006417
      dx2y2   :     0.012807
      dxy     :     0.019289
      f0      :     0.000502  f :     0.003651
      f+1     :     0.000529
      f-1     :     0.000165
      f+2     :     0.000904
      f-2     :     0.000260
      f+3     :     0.000404
      f-3     :     0.000887
  1 C s       :     3.146141  s :     3.146141
      pz      :     0.949793  p :     2.617172
      px      :     0.897917
      py      :     0.769462
      dz2     :     0.013707  d :     0.129742
      dxz     :     0.061910
      dyz     :     0.011884
      dx2y2   :     0.007957
      dxy     :     0.034285
      f0      :     0.002488  f :     0.013384
      f+1     :     0.001378
      f-1     :     0.000871
      f+2     :     0.003230
      f-2     :     0.000883
      f+3     :     0.001576
      f-3     :     0.002958
  2 H s       :     0.898300  s :     0.898300
      pz      :     0.011002  p :     0.045287
      px      :     0.005142
      py      :     0.029143
      dz2     :     0.000102  d :     0.001572
      dxz     :     0.000074
      dyz     :     0.000577
      dx2y2   :     0.000356
      dxy     :     0.000463
  3 H s       :     0.942627  s :     0.942627
      pz      :     0.017718  p :     0.040536
      px      :     0.016434
      py      :     0.006384
      dz2     :     0.000145  d :     0.000565
      dxz     :     0.000187
      dyz     :    -0.000008
      dx2y2   :     0.000190
      dxy     :     0.000051
  4 H s       :     0.929743  s :     0.929743
      pz      :     0.017976  p :     0.053713
      px      :     0.018500
      py      :     0.017237
      dz2     :     0.000398  d :     0.001591
      dxz     :     0.000280
      dyz     :     0.000219
      dx2y2   :     0.000477
      dxy     :     0.000216
  5 C s       :     3.106134  s :     3.106134
      pz      :     0.668153  p :     2.513064
      px      :     0.909051
      py      :     0.935861
      dz2     :     0.036295  d :     0.187125
      dxz     :     0.040908
      dyz     :     0.080467
      dx2y2   :     0.019192
      dxy     :     0.010262
      f0      :     0.003950  f :     0.012589
      f+1     :     0.003086
      f-1     :     0.002767
      f+2     :     0.001557
      f-2     :     0.000936
      f+3     :     0.000104
      f-3     :     0.000190
  6 C s       :     3.018595  s :     3.018595
      pz      :     0.910637  p :     2.893277
      px      :     0.992520
      py      :     0.990120
      dz2     :     0.017043  d :     0.072847
      dxz     :     0.031827
      dyz     :     0.019464
      dx2y2   :     0.000648
      dxy     :     0.003865
      f0      :     0.000916  f :     0.003968
      f+1     :     0.000783
      f-1     :     0.000954
      f+2     :     0.000448
      f-2     :     0.000313
      f+3     :     0.000333
      f-3     :     0.000221
  7 H s       :     0.905060  s :     0.905060
      pz      :     0.018330  p :     0.047743
      px      :     0.023868
      py      :     0.005545
      dz2     :     0.000419  d :     0.001579
      dxz     :     0.000348
      dyz     :     0.000138
      dx2y2   :     0.000237
      dxy     :     0.000438

SPIN
  0 N s       :     0.003360  s :     0.003360
      pz      :     0.012759  p :     0.405794
      px      :     0.009850
      py      :     0.383185
      dz2     :     0.001079  d :     0.003518
      dxz     :    -0.000126
      dyz     :     0.002439
      dx2y2   :     0.000308
      dxy     :    -0.000182
      f0      :     0.000006  f :    -0.000368
      f+1     :     0.000037
      f-1     :     0.000026
      f+2     :    -0.000034
      f-2     :     0.000031
      f+3     :    -0.000168
      f-3     :    -0.000266
  1 C s       :     0.031886  s :     0.031886
      pz      :    -0.016036  p :    -0.168014
      px      :    -0.009536
      py      :    -0.142442
      dz2     :     0.003537  d :     0.018069
      dxz     :    -0.007734
      dyz     :     0.010275
      dx2y2   :    -0.000061
      dxy     :     0.012052
      f0      :     0.000368  f :     0.002354
      f+1     :     0.000095
      f-1     :     0.000520
      f+2     :     0.000142
      f-2     :     0.000159
      f+3     :     0.000124
      f-3     :     0.000947
  2 H s       :     0.039769  s :     0.039769
      pz      :    -0.000090  p :     0.001269
      px      :    -0.001422
      py      :     0.002781
      dz2     :     0.000007  d :     0.000056
      dxz     :     0.000009
      dyz     :     0.000030
      dx2y2   :     0.000003
      dxy     :     0.000008
  3 H s       :     0.013132  s :     0.013132
      pz      :     0.000619  p :     0.002937
      px      :     0.002229
      py      :     0.000090
      dz2     :    -0.000003  d :    -0.000050
      dxz     :    -0.000010
      dyz     :    -0.000014
      dx2y2   :    -0.000002
      dxy     :    -0.000021
  4 H s       :     0.020996  s :     0.020996
      pz      :    -0.000412  p :     0.001431
      px      :     0.001773
      py      :     0.000069
      dz2     :     0.000003  d :     0.000020
      dxz     :     0.000001
      dyz     :     0.000020
      dx2y2   :    -0.000003
      dxy     :    -0.000001
  5 C s       :     0.081193  s :     0.081193
      pz      :     0.011995  p :     0.545757
      px      :     0.026931
      py      :     0.506832
      dz2     :    -0.004680  d :     0.014737
      dxz     :     0.001109
      dyz     :     0.007996
      dx2y2   :     0.005021
      dxy     :     0.005291
      f0      :    -0.000448  f :    -0.001017
      f+1     :    -0.000218
      f-1     :    -0.000317
      f+2     :    -0.000167
      f-2     :     0.000148
      f+3     :    -0.000005
      f-3     :    -0.000009
  6 C s       :     0.019664  s :     0.019664
      pz      :    -0.010928  p :    -0.050739
      px      :    -0.016109
      py      :    -0.023702
      dz2     :     0.001881  d :     0.018707
      dxz     :     0.002248
      dyz     :     0.024149
      dx2y2   :    -0.008509
      dxy     :    -0.001062
      f0      :     0.000331  f :     0.000723
      f+1     :     0.000044
      f-1     :     0.000249
      f+2     :     0.000077
      f-2     :     0.000016
      f+3     :    -0.000001
      f-3     :     0.000008
  7 H s       :    -0.004405  s :    -0.004405
      pz      :    -0.000102  p :    -0.000791
      px      :    -0.000372
      py      :    -0.000317
      dz2     :     0.000008  d :     0.000011
      dxz     :     0.000008
      dyz     :     0.000005
      dx2y2   :    -0.000003
      dxy     :    -0.000006


                     *******************************
                     * LOEWDIN POPULATION ANALYSIS *
                     *******************************

-------------------------------------------
LOEWDIN ATOMIC CHARGES AND SPIN POPULATIONS
-------------------------------------------
   0 N :    0.138747    0.372460
   1 C :   -0.055232   -0.001769
   2 H :   -0.004922    0.028767
   3 H :    0.003558   -0.011871
   4 H :   -0.015240    0.008711
   5 C :   -0.165471    0.518100
   6 C :    0.114341    0.086153
   7 H :   -0.015782   -0.000551

----------------------------------------------------
LOEWDIN REDUCED ORBITAL CHARGES AND SPIN POPULATIONS
----------------------------------------------------
CHARGE
  0 N s       :     3.194745  s :     3.194745
      pz      :     1.031273  p :     3.252655
      px      :     1.280767
      py      :     0.940615
      dz2     :     0.074738  d :     0.396942
      dxz     :     0.128158
      dyz     :     0.039944
      dx2y2   :     0.085025
      dxy     :     0.069076
      f0      :     0.003007  f :     0.016910
      f+1     :     0.002577
      f-1     :     0.000696
      f+2     :     0.004518
      f-2     :     0.000817
      f+3     :     0.002580
      f-3     :     0.002716
  1 C s       :     2.728177  s :     2.728177
      pz      :     0.924930  p :     2.512339
      px      :     0.934632
      py      :     0.652777
      dz2     :     0.136177  d :     0.741656
      dxz     :     0.286476
      dyz     :     0.079262
      dx2y2   :     0.142310
      dxy     :     0.097431
      f0      :     0.016125  f :     0.073059
      f+1     :     0.008908
      f-1     :     0.007401
      f+2     :     0.015571
      f-2     :     0.003455
      f+3     :     0.009457
      f-3     :     0.012141
  2 H s       :     0.699444  s :     0.699444
      pz      :     0.068116  p :     0.277738
      px      :     0.079769
      py      :     0.129853
      dz2     :     0.002594  d :     0.027740
      dxz     :     0.000872
      dyz     :     0.007755
      dx2y2   :     0.008048
      dxy     :     0.008471
  3 H s       :     0.734945  s :     0.734945
      pz      :     0.085847  p :     0.235988
      px      :     0.094260
      py      :     0.055880
      dz2     :     0.005486  d :     0.025509
      dxz     :     0.008542
      dyz     :     0.002671
      dx2y2   :     0.004807
      dxy     :     0.004002
  4 H s       :     0.709894  s :     0.709894
      pz      :     0.080902  p :     0.277205
      px      :     0.103929
      py      :     0.092375
      dz2     :     0.004973  d :     0.028140
      dxz     :     0.005632
      dyz     :     0.004305
      dx2y2   :     0.007330
      dxy     :     0.005899
  5 C s       :     2.718010  s :     2.718010
      pz      :     0.906905  p :     2.534215
      px      :     0.832214
      py      :     0.795096
      dz2     :     0.252253  d :     0.849057
      dxz     :     0.275052
      dyz     :     0.223990
      dx2y2   :     0.062896
      dxy     :     0.034866
      f0      :     0.019847  f :     0.064189
      f+1     :     0.013597
      f-1     :     0.012176
      f+2     :     0.010390
      f-2     :     0.006283
      f+3     :     0.000538
      f-3     :     0.001358
  6 C s       :     2.658862  s :     2.658862
      pz      :     0.887345  p :     2.720235
      px      :     0.921288
      py      :     0.911602
      dz2     :     0.114785  d :     0.472756
      dxz     :     0.135152
      dyz     :     0.107146
      dx2y2   :     0.068204
      dxy     :     0.047469
      f0      :     0.007059  f :     0.033807
      f+1     :     0.004822
      f-1     :     0.007805
      f+2     :     0.004301
      f-2     :     0.004209
      f+3     :     0.003297
      f-3     :     0.002314
  7 H s       :     0.709564  s :     0.709564
      pz      :     0.083408  p :     0.278052
      px      :     0.119020
      py      :     0.075624
      dz2     :     0.005279  d :     0.028167
      dxz     :     0.007975
      dyz     :     0.002092
      dx2y2   :     0.005956
      dxy     :     0.006865

SPIN
  0 N s       :     0.009158  s :     0.009158
      pz      :     0.009817  p :     0.332139
      px      :     0.004863
      py      :     0.317459
      dz2     :     0.001006  d :     0.031155
      dxz     :     0.000089
      dyz     :     0.023412
      dx2y2   :     0.004469
      dxy     :     0.002180
      f0      :    -0.000022  f :     0.000007
      f+1     :     0.000050
      f-1     :     0.000203
      f+2     :     0.000292
      f-2     :     0.000274
      f+3     :    -0.000140
      f-3     :    -0.000650
  1 C s       :    -0.000744  s :    -0.000744
      pz      :    -0.008358  p :    -0.105630
      px      :    -0.004785
      py      :    -0.092487
      dz2     :     0.005650  d :     0.088247
      dxz     :    -0.000065
      dyz     :     0.047601
      dx2y2   :     0.009207
      dxy     :     0.025854
      f0      :     0.002355  f :     0.016358
      f+1     :     0.000801
      f-1     :     0.004003
      f+2     :     0.001091
      f-2     :     0.001200
      f+3     :     0.000462
      f-3     :     0.006446
  2 H s       :     0.023021  s :     0.023021
      pz      :     0.001670  p :     0.005645
      px      :     0.000323
      py      :     0.003652
      dz2     :    -0.000040  d :     0.000102
      dxz     :     0.000067
      dyz     :     0.000207
      dx2y2   :    -0.000072
      dxy     :    -0.000060
  3 H s       :     0.001106  s :     0.001106
      pz      :    -0.001694  p :    -0.011402
      px      :    -0.000923
      py      :    -0.008785
      dz2     :    -0.000144  d :    -0.001574
      dxz     :    -0.000190
      dyz     :    -0.000425
      dx2y2   :    -0.000138
      dxy     :    -0.000678
  4 H s       :     0.007957  s :     0.007957
      pz      :     0.000762  p :     0.000834
      px      :     0.000591
      py      :    -0.000519
      dz2     :    -0.000054  d :    -0.000081
      dxz     :    -0.000016
      dyz     :     0.000031
      dx2y2   :     0.000007
      dxy     :    -0.000049
  5 C s       :     0.048210  s :     0.048210
      pz      :     0.004915  p :     0.431866
      px      :     0.016102
      py      :     0.410848
      dz2     :     0.017779  d :     0.038258
      dxz     :    -0.002046
      dyz     :     0.000664
      dx2y2   :     0.010638
      dxy     :     0.011222
      f0      :    -0.000627  f :    -0.000233
      f+1     :    -0.000240
      f-1     :    -0.000274
      f+2     :     0.000176
      f-2     :     0.000545
      f+3     :     0.000115
      f-3     :     0.000071
  6 C s       :     0.007865  s :     0.007865
      pz      :     0.001686  p :    -0.001031
      px      :    -0.000811
      py      :    -0.001906
      dz2     :     0.007125  d :     0.074230
      dxz     :     0.002436
      dyz     :     0.042440
      dx2y2   :     0.014201
      dxy     :     0.008028
      f0      :     0.001938  f :     0.005089
      f+1     :     0.000183
      f-1     :     0.002121
      f+2     :     0.000587
      f-2     :     0.000089
      f+3     :     0.000103
      f-3     :     0.000069
  7 H s       :     0.000269  s :     0.000269
      pz      :    -0.000222  p :    -0.000823
      px      :    -0.000032
      py      :    -0.000569
      dz2     :    -0.000001  d :     0.000003
      dxz     :     0.000036
      dyz     :    -0.000052
      dx2y2   :    -0.000011
      dxy     :     0.000032


                      *****************************
                      * MAYER POPULATION ANALYSIS *
                      *****************************

  NA   - Mulliken gross atomic population
  ZA   - Total nuclear charge
  QA   - Mulliken gross atomic charge
  VA   - Mayer's total valence
  BVA  - Mayer's bonded valence
  FA   - Mayer's free valence

  ATOM       NA         ZA         QA         VA         BVA        FA
  0 N      7.4176     7.0000    -0.4176     2.5861     2.4192     0.1669
  1 C      5.9064     6.0000     0.0936     4.0814     4.0599     0.0215
  2 H      0.9452     1.0000     0.0548     1.0436     1.0410     0.0026
  3 H      0.9837     1.0000     0.0163     1.0590     1.0587     0.0002
  4 H      0.9850     1.0000     0.0150     1.0845     1.0842     0.0003
  5 C      5.8189     6.0000     0.1811     3.5481     3.0436     0.5045
  6 C      5.9887     6.0000     0.0113     4.0161     4.0099     0.0063
  7 H      0.9544     1.0000     0.0456     1.0472     1.0472    -0.0000

  Mayer bond orders larger than 0.100000
B(  0-N ,  1-C ) :   1.6851 B(  0-N ,  5-C ) :   0.6058 B(  1-C ,  3-H ) :   0.9628 
B(  1-C ,  5-C ) :   1.3112 B(  2-H ,  6-C ) :   0.9380 B(  4-H ,  6-C ) :   0.9798 
B(  5-C ,  6-C ) :   0.9825 B(  6-C ,  7-H ) :   0.9809 

-------
TIMINGS
-------

Total SCF time: 0 days 0 hours 0 min 7 sec 

Total time                  ....       7.335 sec
Sum of individual times     ....       7.072 sec  ( 96.4%)

Fock matrix formation       ....       6.500 sec  ( 88.6%)
  XC integration            ....       1.235 sec  ( 19.0% of F)
    Basis function eval.    ....       0.085 sec  (  6.9% of XC)
    Density eval.           ....       0.282 sec  ( 22.9% of XC)
    XC-Functional eval.     ....       0.040 sec  (  3.2% of XC)
    XC-Potential eval.      ....       0.638 sec  ( 51.6% of XC)
Diagonalization             ....       0.151 sec  (  2.1%)
Density matrix formation    ....       0.020 sec  (  0.3%)
Population analysis         ....       0.015 sec  (  0.2%)
Initial guess               ....       0.136 sec  (  1.9%)
Orbital Transformation      ....       0.000 sec  (  0.0%)
Orbital Orthonormalization  ....       0.000 sec  (  0.0%)
DIIS solution               ....       0.053 sec  (  0.7%)
Grid generation             ....       0.197 sec  (  2.7%)


-------------------------------------------------------------------------------
                          DFT DISPERSION CORRECTION                            
                                                                               
                              DFTD3 V3.1  Rev 1                                
                          USING Becke-Johnson damping                          
-------------------------------------------------------------------------------
The TPSSH functional is recognized
Active option DFTDOPT                   ...         4   

molecular C6(AA) [au] = 667.683407 


            DFT-D V3
 parameters
 s6 scaling factor         :     1.0000 
 a1 scaling factor         :     0.4529 
 s8 scaling factor         :     2.2382 
 a2 scaling factor         :     4.6550 
 ad hoc parameters k1-k3   :    16.0000     1.3333    -4.0000 

 Edisp/kcal,au: -3.299333701273  -0.005257822369 
 E6   /kcal   :  -1.598403178 
 E8   /kcal   :  -1.700930523 
 % E8         :  51.553758338 

-------------------------   ----------------
Dispersion correction           -0.005257822
-------------------------   ----------------


-------------------------   --------------------
FINAL SINGLE POINT ENERGY      -171.417573654721
-------------------------   --------------------


                            ***************************************
                            *     ORCA property calculations      *
                            ***************************************

                                    ---------------------
                                    Active property flags
                                    ---------------------
   (+) Dipole Moment


------------------------------------------------------------------------------
                       ORCA ELECTRIC PROPERTIES CALCULATION
------------------------------------------------------------------------------

Dipole Moment Calculation                       ... on
Quadrupole Moment Calculation                   ... off
Polarizability Calculation                      ... off
GBWName                                         ... 111.gbw
Electron density file                           ... 111.scfp
The origin for moment calculation is the CENTER OF MASS  = ( 0.290275,  0.216643  0.970473)

-------------
DIPOLE MOMENT
-------------
                                X             Y             Z
Electronic contribution:      0.27437       0.72026       3.67438
Nuclear contribution   :     -1.13576      -0.94785      -4.02666
                        -----------------------------------------
Total Dipole Moment    :     -0.86139      -0.22759      -0.35228
                        -----------------------------------------
Magnitude (a.u.)       :      0.95806
Magnitude (Debye)      :      2.43520



--------------------
Rotational spectrum 
--------------------
 
Rotational constants in cm-1:     0.919406     0.218621     0.189338 
Rotational constants in MHz : 27563.112958  6554.079895  5676.208610 

 Dipole components along the rotational axes: 
x,y,z [a.u.] :    -0.352280    -0.861387    -0.227589 
x,y,z [Debye]:    -0.895425    -2.189472    -0.578486 

 

Timings for individual modules:

Sum of individual times         ...        8.393 sec (=   0.140 min)
GTO integral calculation        ...        0.669 sec (=   0.011 min)   8.0 %
SCF iterations                  ...        7.724 sec (=   0.129 min)  92.0 %
                             ****ORCA TERMINATED NORMALLY****
TOTAL RUN TIME: 0 days 0 hours 0 minutes 8 seconds 876 msec
