
                                 *****************
                                 * O   R   C   A *
                                 *****************

           --- An Ab Initio, DFT and Semiempirical electronic structure package ---

                  #######################################################
                  #                        -***-                        #
                  #          Department of theory and spectroscopy      #
                  #               Directorship: Frank Neese             #
                  #        Max Planck Institute fuer Kohlenforschung    #
                  #                Kaiser Wilhelm Platz 1               #
                  #                 D-45470 Muelheim/Ruhr               #
                  #                      Germany                        #
                  #                                                     #
                  #                  All rights reserved                #
                  #                        -***-                        #
                  #######################################################


                         Program Version 4.2.0 -  RELEASE  -


 With contributions from (in alphabetic order):
   Daniel Aravena         : Magnetic Suceptibility
   Michael Atanasov       : Ab Initio Ligand Field Theory (pilot matlab implementation)
   Alexander A. Auer      : GIAO ZORA, VPT2
   Ute Becker             : Parallelization
   Giovanni Bistoni       : ED, misc. LED, open-shell LED, HFLED
   Martin Brehm           : Molecular dynamics
   Dmytro Bykov           : SCF Hessian
   Vijay G. Chilkuri      : MRCI spin determinant printing, contributions to CSF-ICE
   Dipayan Datta          : RHF DLPNO-CCSD density
   Achintya Kumar Dutta   : EOM-CC, STEOM-CC
   Dmitry Ganyushin       : Spin-Orbit,Spin-Spin,Magnetic field MRCI
   Miquel Garcia          : C-PCM Hessian, Gaussian charge scheme
   Yang Guo               : DLPNO-NEVPT2, CIM, IAO-localization
   Andreas Hansen         : Spin unrestricted coupled pair/coupled cluster methods
   Benjamin Helmich-Paris : CASSCF linear response (MC-RPA)
   Lee Huntington         : MR-EOM, pCC
   Robert Izsak           : Overlap fitted RIJCOSX, COSX-SCS-MP3, EOM
   Christian Kollmar      : KDIIS, OOCD, Brueckner-CCSD(T), CCSD density
   Simone Kossmann        : Meta GGA functionals, TD-DFT gradient, OOMP2, MP2 Hessian
   Martin Krupicka        : AUTO-CI
   Lucas Lang             : DCDCAS
   Dagmar Lenk            : GEPOL surface, SMD
   Dimitrios Liakos       : Extrapolation schemes; Compound Job, initial MDCI parallelization
   Dimitrios Manganas     : Further ROCIS development; embedding schemes
   Dimitrios Pantazis     : SARC Basis sets
   Taras Petrenko         : DFT Hessian,TD-DFT gradient, ASA, ECA, R-Raman, ABS, FL, XAS/XES, NRVS
   Peter Pinski           : DLPNO-MP2, DLPNO-MP2 Gradient
   Christoph Reimann      : Effective Core Potentials
   Marius Retegan         : Local ZFS, SOC
   Christoph Riplinger    : Optimizer, TS searches, QM/MM, DLPNO-CCSD(T), (RO)-DLPNO pert. Triples
   Tobias Risthaus        : Range-separated hybrids, TD-DFT gradient, RPA, STAB
   Michael Roemelt        : Original ROCIS implementation
   Masaaki Saitow         : Open-shell DLPNO-CCSD energy and density
   Barbara Sandhoefer     : DKH picture change effects
   Avijit Sen             : IP-ROCIS
   Kantharuban Sivalingam : CASSCF convergence, NEVPT2, FIC-MRCI
   Bernardo de Souza      : ESD, SOC TD-DFT
   Georgi Stoychev        : AutoAux, RI-MP2 NMR
   Willem Van den Heuvel  : Paramagnetic NMR
   Boris Wezisla          : Elementary symmetry handling
   Frank Wennmohs         : Technical directorship


 We gratefully acknowledge several colleagues who have allowed us to
 interface, adapt or use parts of their codes:
   Stefan Grimme, W. Hujo, H. Kruse,             : VdW corrections, initial TS optimization,
                  C. Bannwarth                     DFT functionals, gCP, sTDA/sTD-DF
   Ed Valeev, F. Pavosevic, A. Kumar             : LibInt (2-el integral package), F12 methods
   Garnet Chan, S. Sharma, J. Yang, R. Olivares  : DMRG
   Ulf Ekstrom                                   : XCFun DFT Library
   Mihaly Kallay                                 : mrcc  (arbitrary order and MRCC methods)
   Andreas Klamt, Michael Diedenhofen            : otool_cosmo (COSMO solvation model)
   Jiri Pittner, Ondrej Demel                    : Mk-CCSD
   Frank Weinhold                                : gennbo (NPA and NBO analysis)
   Christopher J. Cramer and Donald G. Truhlar   : smd solvation model
   Lars Goerigk                                  : TD-DFT with DH, B97 family of functionals
   V. Asgeirsson, H. Jonsson                     : NEB implementation
   FAccTs GmbH                                   : IRC, NEB, NEB-TS, Multilevel, MM, QM/MM, CI optimization
   S Lehtola, MJT Oliveira, MAL Marques          : LibXC Library


 Your calculation uses the libint2 library for the computation of 2-el integrals
 For citations please refer to: http://libint.valeyev.net

 Your ORCA version has been built with support for libXC version: 4.2.3
 For citations please refer to: https://tddft.org/programs/libxc/

 This ORCA versions uses:
   CBLAS   interface :  Fast vector & matrix operations
   LAPACKE interface :  Fast linear algebra routines
   SCALAPACK package :  Parallel linear algebra routines


Your calculation utilizes the atom-pairwise dispersion correction
with the Becke-Johnson damping scheme (D3BJ)
Cite in your paper:
S.Grimme, S.Ehrlich, L.Goerigk, J Comput Chem, (2011), 32, 1456–1465 
S.Grimme, J.Antony, S.Ehrlich and H.Krieg, J.Chem.Phys., 132, (2010), 154104 
   

----- Orbital basis set information -----
Your calculation utilizes the basis: def2-TZVPPD
   F. Weigend and R. Ahlrichs, Phys. Chem. Chem. Phys. 7, 3297 (2005).
   D. Rappoport and F. Furche, J. Chem. Phys. 133 134105 (2010).

----- AuxJK basis set information -----
Your calculation utilizes the auxiliary basis: def2/JK
   H-Ba, Hf-Rn: F. Weigend, J. Comput. Chem. 29, 167 (2008).

================================================================================
                                        WARNINGS
                       Please study these warnings very carefully!
================================================================================


INFO   : the flag for use of LIBINT has been found!

================================================================================
                                       INPUT FILE
================================================================================
NAME = 136.in
|  1> #
|  2> # 136 TPSSh-D3BJ/Def2-TZVPPD
|  3> #
|  4> ! tpssh d3bj def2-tzvppd def2/jk grid4 nofinalgrid
|  5> 
|  6> *xyz 0 1
|  7> H         -0.64763        2.95877       -0.31431
|  8> H         -0.38809        2.29902       -0.56811
|  9> H         -0.46982        0.02713        1.23682
| 10> H         -0.44619       -2.23309       -1.25807
| 11> H          1.15514       -0.83076        1.35211
| 12> O          0.58676       -0.20120       -0.67466
| 13> C          0.25357       -0.64235        0.76247
| 14> B         -0.04374       -1.37752       -0.53625
| 15> *
| 16> 
| 17> %maxcore 5000
| 18> 
| 19> %pal
| 20> nprocs = 24
| 21> end
| 22> 
| 23> 
| 24>                          ****END OF INPUT****
================================================================================

                       ****************************
                       * Single Point Calculation *
                       ****************************

---------------------------------
CARTESIAN COORDINATES (ANGSTROEM)
---------------------------------
  H     -0.647630    2.958770   -0.314310
  H     -0.388090    2.299020   -0.568110
  H     -0.469820    0.027130    1.236820
  H     -0.446190   -2.233090   -1.258070
  H      1.155140   -0.830760    1.352110
  O      0.586760   -0.201200   -0.674660
  C      0.253570   -0.642350    0.762470
  B     -0.043740   -1.377520   -0.536250

----------------------------
CARTESIAN COORDINATES (A.U.)
----------------------------
  NO LB      ZA    FRAG     MASS         X           Y           Z
   0 H     1.0000    0     1.008   -1.223843    5.591265   -0.593960
   1 H     1.0000    0     1.008   -0.733384    4.344518   -1.073572
   2 H     1.0000    0     1.008   -0.887831    0.051268    2.337251
   3 H     1.0000    0     1.008   -0.843177   -4.219929   -2.377408
   4 H     1.0000    0     1.008    2.182898   -1.569909    2.555118
   5 O     8.0000    0    15.999    1.108816   -0.380213   -1.274923
   6 C     6.0000    0    12.011    0.479178   -1.213866    1.440859
   7 B     5.0000    0    10.810   -0.082657   -2.603136   -1.013366

--------------------------------
INTERNAL COORDINATES (ANGSTROEM)
--------------------------------
 H      0   0   0     0.000000000000     0.00000000     0.00000000
 H      1   0   0     0.753024245360     0.00000000     0.00000000
 H      2   1   0     2.902746332338   117.80385754     0.00000000
 H      3   2   1     3.366545549580    93.69596783   156.63781283
 H      3   2   1     1.841130641155   112.25798081   231.04803546
 O      3   2   1     2.195962585223    61.74378454   188.22470225
 C      5   3   2     1.093618819608    32.68672483   284.84912840
 B      4   3   2     1.189533580779    21.53276110    68.34129435

---------------------------
INTERNAL COORDINATES (A.U.)
---------------------------
 H      0   0   0     0.000000000000     0.00000000     0.00000000
 H      1   0   0     1.423009595933     0.00000000     0.00000000
 H      2   1   0     5.485395604363   117.80385754     0.00000000
 H      3   2   1     6.361849106078    93.69596783   156.63781283
 H      3   2   1     3.479232688554   112.25798081   231.04803546
 O      3   2   1     4.149767886409    61.74378454   188.22470225
 C      5   3   2     2.066640063961    32.68672483   284.84912840
 B      4   3   2     2.247892694774    21.53276110    68.34129435

---------------------
BASIS SET INFORMATION
---------------------
There are 4 groups of distinct atoms

 Group   1 Type H   : 5s3p1d contracted to 3s3p1d pattern {311/111/1}
 Group   2 Type O   : 12s7p3d1f contracted to 6s4p3d1f pattern {621111/4111/111/1}
 Group   3 Type C   : 12s6p3d1f contracted to 6s3p3d1f pattern {621111/411/111/1}
 Group   4 Type B   : 12s6p3d1f contracted to 6s3p3d1f pattern {621111/411/111/1}

Atom   0H    basis set group =>   1
Atom   1H    basis set group =>   1
Atom   2H    basis set group =>   1
Atom   3H    basis set group =>   1
Atom   4H    basis set group =>   1
Atom   5O    basis set group =>   2
Atom   6C    basis set group =>   3
Atom   7B    basis set group =>   4
----------------------------------
AUXILIARY/JK BASIS SET INFORMATION
----------------------------------
There are 4 groups of distinct atoms

 Group   1 Type H   : 4s2p2d contracted to 2s2p2d pattern {31/11/11}
 Group   2 Type O   : 14s10p6d2f1g contracted to 10s8p4d2f1g pattern {5111111111/31111111/3111/11/1}
 Group   3 Type C   : 14s10p6d2f1g contracted to 10s8p5d1f1g pattern {5111111111/31111111/21111/2/1}
 Group   4 Type B   : 14s10p6d2f1g contracted to 10s8p5d1f1g pattern {5111111111/31111111/21111/2/1}

Atom   0H    basis set group =>   1
Atom   1H    basis set group =>   1
Atom   2H    basis set group =>   1
Atom   3H    basis set group =>   1
Atom   4H    basis set group =>   1
Atom   5O    basis set group =>   2
Atom   6C    basis set group =>   3
Atom   7B    basis set group =>   4


           ************************************************************
           *        Program running with 24 parallel MPI-processes    *
           *              working on a common directory               *
           ************************************************************
------------------------------------------------------------------------------
                           ORCA GTO INTEGRAL CALCULATION
------------------------------------------------------------------------------

                         BASIS SET STATISTICS AND STARTUP INFO

 # of primitive gaussian shells          ...  112
 # of primitive gaussian functions       ...  254
 # of contracted shells                  ...   75
 # of contracted basis functions         ...  199
 Highest angular momentum                ...    3
 Maximum contraction depth               ...    6
 Integral package used                   ... LIBINT
 Integral threshhold            Thresh   ...  1.000e-10
 Primitive cut-off              TCut     ...  1.000e-11


------------------------------ INTEGRAL EVALUATION ----------------------------


 * One electron integrals 
 Pre-screening matrix                    ... done
 Shell pair data                         ... done (   0.001 sec)



           ************************************************************
           *        Program running with 24 parallel MPI-processes    *
           *              working on a common directory               *
           ************************************************************
-------------------------------------------------------------------------------
                                 ORCA SCF
-------------------------------------------------------------------------------

------------
SCF SETTINGS
------------
Hamiltonian:
 Density Functional     Method          .... DFT(GTOs)
 Exchange Functional    Exchange        .... TPSS
 Correlation Functional Correlation     .... TPSS
 LDA part of GGA corr.  LDAOpt          .... PW91-LDA
 Gradients option       PostSCFGGA      .... off
 Hybrid DFT is turned on
   Fraction HF Exchange ScalHFX         ....  0.100000
   Scaling of DF-GGA-X  ScalDFX         ....  0.900000
   Scaling of DF-GGA-C  ScalDFC         ....  1.000000
   Scaling of DF-LDA-C  ScalLDAC        ....  1.000000
   Perturbative correction              ....  0.000000
   Density functional embedding theory  .... OFF
   NL short-range parameter             ....  5.200000


General Settings:
 Integral files         IntName         .... 136
 Hartree-Fock type      HFTyp           .... RHF
 Total Charge           Charge          ....    0
 Multiplicity           Mult            ....    1
 Number of Electrons    NEL             ....   24
 Basis Dimension        Dim             ....  199
 Nuclear Repulsion      ENuc            ....     67.9130474651 Eh

Convergence Acceleration:
 DIIS                   CNVDIIS         .... on
   Start iteration      DIISMaxIt       ....    12
   Startup error        DIISStart       ....  0.200000
   # of expansion vecs  DIISMaxEq       ....     5
   Bias factor          DIISBfac        ....   1.050
   Max. coefficient     DIISMaxC        ....  10.000
 Newton-Raphson         CNVNR           .... off
 SOSCF                  CNVSOSCF        .... on
   Start iteration      SOSCFMaxIt      ....   150
   Startup grad/error   SOSCFStart      ....  0.003300
 Level Shifting         CNVShift        .... on
   Level shift para.    LevelShift      ....    0.2500
   Turn off err/grad.   ShiftErr        ....    0.0010
 Zerner damping         CNVZerner       .... off
 Static damping         CNVDamp         .... on
   Fraction old density DampFac         ....    0.7000
   Max. Damping (<1)    DampMax         ....    0.9800
   Min. Damping (>=0)   DampMin         ....    0.0000
   Turn off err/grad.   DampErr         ....    0.1000
 Fernandez-Rico         CNVRico         .... off

SCF Procedure:
 Maximum # iterations   MaxIter         ....   125
 SCF integral mode      SCFMode         .... Direct
   Integral package                     .... LIBINT
 Reset frequency        DirectResetFreq ....    20
 Integral Threshold     Thresh          ....  1.000e-10 Eh
 Primitive CutOff       TCut            ....  1.000e-11 Eh

Convergence Tolerance:
 Convergence Check Mode ConvCheckMode   .... Total+1el-Energy
 Convergence forced     ConvForced      .... 0
 Energy Change          TolE            ....  1.000e-06 Eh
 1-El. energy change                    ....  1.000e-03 Eh
 Orbital Gradient       TolG            ....  5.000e-05
 Orbital Rotation angle TolX            ....  5.000e-05
 DIIS Error             TolErr          ....  1.000e-06


Diagonalization of the overlap matrix:
Smallest eigenvalue                        ... 4.199e-05
Time for diagonalization                   ...    0.009 sec
Threshold for overlap eigenvalues          ... 1.000e-08
Number of eigenvalues below threshold      ... 0
Time for construction of square roots      ...    0.006 sec
Total time needed                          ...    0.015 sec

-------------------
DFT GRID GENERATION
-------------------

General Integration Accuracy     IntAcc      ...  4.670
Radial Grid Type                 RadialGrid  ... Gauss-Chebyshev
Angular Grid (max. acc.)         AngularGrid ... Lebedev-302
Angular grid pruning method      GridPruning ... 3 (G Style)
Weight generation scheme         WeightScheme... Becke
Basis function cutoff            BFCut       ...    1.0000e-10
Integration weight cutoff        WCut        ...    1.0000e-14
Grids for H and He will be reduced by one unit

# of grid points (after initial pruning)     ...  35522 (   0.0 sec)
# of grid points (after weights+screening)   ...  34180 (   0.0 sec)
nearest neighbour list constructed           ...    0.0 sec
Grid point re-assignment to atoms done       ...    0.0 sec
Grid point division into batches done        ...    0.1 sec
Reduced shell lists constructed in    0.2 sec

Total number of grid points                  ...    34180
Total number of batches                      ...      537
Average number of points per batch           ...       63
Average number of grid points per atom       ...     4272
Average number of shells per batch           ...    28.17 (37.56%)
Average number of basis functions per batch  ...    67.75 (34.05%)
Average number of large shells per batch     ...    20.29 (72.04%)
Average number of large basis fcns per batch ...    48.54 (71.65%)
Maximum spatial batch extension              ...  19.58, 15.09, 19.12 au
Average spatial batch extension              ...   0.43,  0.35,  0.43 au

Time for grid setup =    0.243 sec

------------------------------
INITIAL GUESS: MODEL POTENTIAL
------------------------------
Loading Hartree-Fock densities                     ... done
Calculating cut-offs                               ... done
Setting up the integral package                    ... done
Initializing the effective Hamiltonian             ... done
Starting the Coulomb interaction                   ... done (   0.0 sec)
Reading the grid                                   ... done
Mapping shells                                     ... done
Starting the XC term evaluation                    ... done (   0.0 sec)
  promolecular density results
     # of electrons  =     23.997550493
     EX              =    -18.453682307
     EC              =     -0.734126865
     EX+EC           =    -19.187809171
Transforming the Hamiltonian                       ... done (   0.0 sec)
Diagonalizing the Hamiltonian                      ... done (   0.0 sec)
Back transforming the eigenvectors                 ... done (   0.0 sec)
Now organizing SCF variables                       ... done
                      ------------------
                      INITIAL GUESS DONE (   0.4 sec)
                      ------------------
--------------
SCF ITERATIONS
--------------
ITER       Energy         Delta-E        Max-DP      RMS-DP      [F,P]     Damp
               ***  Starting incremental Fock matrix formation  ***
  0   -141.1335690726   0.000000000000 0.03914681  0.00088825  0.2013035 0.7000
  1   -141.1699485537  -0.036379481103 0.02459597  0.00063891  0.0721200 0.7000
                               ***Turning on DIIS***
  2   -141.1830213102  -0.013072756513 0.05548427  0.00131958  0.0302397 0.0000
  3   -141.2064554174  -0.023434107217 0.01490090  0.00046382  0.0372202 0.0000
  4   -141.2103429519  -0.003887534523 0.00748820  0.00014441  0.0164920 0.0000
  5   -141.2108355973  -0.000492645389 0.00176145  0.00004517  0.0048045 0.0000
                      *** Initiating the SOSCF procedure ***
                           *** Shutting down DIIS ***
                      *** Re-Reading the Fockian *** 
                      *** Removing any level shift *** 
ITER      Energy       Delta-E        Grad      Rot      Max-DP    RMS-DP
  6   -141.21087613  -0.0000405325  0.000223  0.000223  0.001517  0.000041
               *** Restarting incremental Fock matrix formation ***
  7   -141.21087782  -0.0000016865  0.000128  0.000316  0.000470  0.000010
  8   -141.21087741   0.0000004038  0.000198  0.000290  0.000216  0.000005
  9   -141.21087824  -0.0000008260  0.000043  0.000101  0.000141  0.000003
 10   -141.21087814   0.0000000988  0.000066  0.000064  0.000092  0.000002
                 **** Energy Check signals convergence ****
              ***Rediagonalizing the Fockian in SOSCF/NRSCF***

               *****************************************************
               *                     SUCCESS                       *
               *           SCF CONVERGED AFTER  11 CYCLES          *
               *****************************************************


----------------
TOTAL SCF ENERGY
----------------

Total Energy       :         -141.21087827 Eh           -3842.54335 eV

Components:
Nuclear Repulsion  :           67.91304747 Eh            1848.00797 eV
Electronic Energy  :         -209.12392574 Eh           -5690.55132 eV
One Electron Energy:         -325.10445267 Eh           -8846.54191 eV
Two Electron Energy:          115.98052693 Eh            3155.99059 eV

Virial components:
Potential Energy   :         -281.67991269 Eh           -7664.90010 eV
Kinetic Energy     :          140.46903442 Eh            3822.35675 eV
Virial Ratio       :            2.00528119


DFT components:
N(Alpha)           :       12.000005128887 electrons
N(Beta)            :       12.000005128887 electrons
N(Total)           :       24.000010257773 electrons
E(X)               :      -17.256048633699 Eh       
E(C)               :       -0.746547475672 Eh       
E(XC)              :      -18.002596109371 Eh       
DFET-embed. en.    :        0.000000000000 Eh       

---------------
SCF CONVERGENCE
---------------

  Last Energy change         ...   -1.3300e-07  Tolerance :   1.0000e-06
  Last MAX-Density change    ...    1.5781e-05  Tolerance :   1.0000e-05
  Last RMS-Density change    ...    5.3728e-07  Tolerance :   1.0000e-06
  Last Orbital Gradient      ...    3.5035e-06  Tolerance :   5.0000e-05
  Last Orbital Rotation      ...    7.4312e-06  Tolerance :   5.0000e-05

             **** THE GBW FILE WAS UPDATED (136.gbw) ****
             **** DENSITY FILE WAS UPDATED (136.scfp) ****
             **** ENERGY FILE WAS UPDATED (136.en.tmp) ****
             **** THE GBW FILE WAS UPDATED (136.gbw) ****
             **** DENSITY FILE WAS UPDATED (136.scfp) ****
----------------
ORBITAL ENERGIES
----------------

  NO   OCC          E(Eh)            E(eV) 
   0   2.0000     -19.086518      -519.3706 
   1   2.0000     -10.159646      -276.4580 
   2   2.0000      -6.726233      -183.0301 
   3   2.0000      -1.023989       -27.8642 
   4   2.0000      -0.647638       -17.6231 
   5   2.0000      -0.487058       -13.2535 
   6   2.0000      -0.453839       -12.3496 
   7   2.0000      -0.443966       -12.0809 
   8   2.0000      -0.403719       -10.9857 
   9   2.0000      -0.371002       -10.0955 
  10   2.0000      -0.312520        -8.5041 
  11   2.0000      -0.281376        -7.6566 
  12   0.0000      -0.036206        -0.9852 
  13   0.0000       0.008859         0.2411 
  14   0.0000       0.015974         0.4347 
  15   0.0000       0.027912         0.7595 
  16   0.0000       0.053023         1.4428 
  17   0.0000       0.061698         1.6789 
  18   0.0000       0.065295         1.7768 
  19   0.0000       0.076275         2.0755 
  20   0.0000       0.086487         2.3534 
  21   0.0000       0.099937         2.7194 
  22   0.0000       0.114435         3.1139 
  23   0.0000       0.128261         3.4901 
  24   0.0000       0.135158         3.6778 
  25   0.0000       0.146889         3.9971 
  26   0.0000       0.150724         4.1014 
  27   0.0000       0.158059         4.3010 
  28   0.0000       0.167174         4.5490 
  29   0.0000       0.170775         4.6470 
  30   0.0000       0.185810         5.0561 
  31   0.0000       0.199892         5.4393 
  32   0.0000       0.218529         5.9465 
  33   0.0000       0.225157         6.1268 
  34   0.0000       0.241391         6.5686 
  35   0.0000       0.245448         6.6790 
  36   0.0000       0.260709         7.0943 
  37   0.0000       0.273420         7.4401 
  38   0.0000       0.285916         7.7802 
  39   0.0000       0.297822         8.1041 
  40   0.0000       0.309484         8.4215 
  41   0.0000       0.312226         8.4961 
  42   0.0000       0.326934         8.8963 
  43   0.0000       0.333682         9.0799 
  44   0.0000       0.343170         9.3381 
  45   0.0000       0.344351         9.3703 
  46   0.0000       0.351895         9.5755 
  47   0.0000       0.370736        10.0882 
  48   0.0000       0.383003        10.4220 
  49   0.0000       0.391749        10.6600 
  50   0.0000       0.395166        10.7530 
  51   0.0000       0.409072        11.1314 
  52   0.0000       0.424854        11.5609 
  53   0.0000       0.441927        12.0254 
  54   0.0000       0.447470        12.1763 
  55   0.0000       0.460810        12.5393 
  56   0.0000       0.489960        13.3325 
  57   0.0000       0.513260        13.9665 
  58   0.0000       0.523070        14.2334 
  59   0.0000       0.538057        14.6413 
  60   0.0000       0.571648        15.5553 
  61   0.0000       0.586398        15.9567 
  62   0.0000       0.609958        16.5978 
  63   0.0000       0.622030        16.9263 
  64   0.0000       0.654839        17.8191 
  65   0.0000       0.691662        18.8211 
  66   0.0000       0.720654        19.6100 
  67   0.0000       0.726470        19.7683 
  68   0.0000       0.743173        20.2228 
  69   0.0000       0.757073        20.6010 
  70   0.0000       0.760738        20.7007 
  71   0.0000       0.787554        21.4304 
  72   0.0000       0.799739        21.7620 
  73   0.0000       0.817565        22.2471 
  74   0.0000       0.831511        22.6266 
  75   0.0000       0.855552        23.2808 
  76   0.0000       0.879999        23.9460 
  77   0.0000       0.934214        25.4213 
  78   0.0000       0.951851        25.9012 
  79   0.0000       0.966741        26.3064 
  80   0.0000       1.018923        27.7263 
  81   0.0000       1.048840        28.5404 
  82   0.0000       1.075527        29.2666 
  83   0.0000       1.101915        29.9846 
  84   0.0000       1.118548        30.4372 
  85   0.0000       1.129644        30.7392 
  86   0.0000       1.133392        30.8412 
  87   0.0000       1.159179        31.5429 
  88   0.0000       1.160454        31.5776 
  89   0.0000       1.211941        32.9786 
  90   0.0000       1.229159        33.4471 
  91   0.0000       1.255901        34.1748 
  92   0.0000       1.270534        34.5730 
  93   0.0000       1.320572        35.9346 
  94   0.0000       1.325530        36.0695 
  95   0.0000       1.378017        37.4977 
  96   0.0000       1.397529        38.0287 
  97   0.0000       1.526232        41.5309 
  98   0.0000       1.548239        42.1297 
  99   0.0000       1.564367        42.5686 
 100   0.0000       1.608576        43.7716 
 101   0.0000       1.665705        45.3261 
 102   0.0000       1.697973        46.2042 
 103   0.0000       1.758178        47.8424 
 104   0.0000       1.787153        48.6309 
 105   0.0000       1.840847        50.0920 
 106   0.0000       1.887725        51.3676 
 107   0.0000       1.936113        52.6843 
 108   0.0000       1.962518        53.4028 
 109   0.0000       2.039276        55.4915 
 110   0.0000       2.047781        55.7230 
 111   0.0000       2.068867        56.2967 
 112   0.0000       2.134423        58.0806 
 113   0.0000       2.189179        59.5706 
 114   0.0000       2.201185        59.8973 
 115   0.0000       2.363833        64.3232 
 116   0.0000       2.400484        65.3205 
 117   0.0000       2.421250        65.8856 
 118   0.0000       2.453121        66.7528 
 119   0.0000       2.471439        67.2513 
 120   0.0000       2.495502        67.9061 
 121   0.0000       2.564024        69.7706 
 122   0.0000       2.583542        70.3017 
 123   0.0000       2.626973        71.4836 
 124   0.0000       2.838614        77.2426 
 125   0.0000       2.858585        77.7861 
 126   0.0000       2.864072        77.9354 
 127   0.0000       2.922189        79.5168 
 128   0.0000       2.945317        80.1462 
 129   0.0000       2.967004        80.7363 
 130   0.0000       2.990256        81.3690 
 131   0.0000       3.023406        82.2711 
 132   0.0000       3.126440        85.0747 
 133   0.0000       3.137077        85.3642 
 134   0.0000       3.179162        86.5094 
 135   0.0000       3.197453        87.0071 
 136   0.0000       3.333768        90.7164 
 137   0.0000       3.380953        92.0004 
 138   0.0000       3.384702        92.1024 
 139   0.0000       3.498227        95.1916 
 140   0.0000       3.527419        95.9859 
 141   0.0000       3.542660        96.4007 
 142   0.0000       3.568164        97.0947 
 143   0.0000       3.588223        97.6405 
 144   0.0000       3.641627        99.0937 
 145   0.0000       3.654798        99.4521 
 146   0.0000       3.685786       100.2953 
 147   0.0000       3.743019       101.8527 
 148   0.0000       3.753058       102.1259 
 149   0.0000       3.767713       102.5247 
 150   0.0000       3.824132       104.0599 
 151   0.0000       3.833355       104.3109 
 152   0.0000       3.838174       104.4420 
 153   0.0000       3.851251       104.7979 
 154   0.0000       3.857118       104.9575 
 155   0.0000       3.926494       106.8453 
 156   0.0000       3.956102       107.6510 
 157   0.0000       3.974894       108.1624 
 158   0.0000       4.018501       109.3490 
 159   0.0000       4.057527       110.4109 
 160   0.0000       4.155583       113.0792 
 161   0.0000       4.180044       113.7448 
 162   0.0000       4.205163       114.4283 
 163   0.0000       4.219303       114.8131 
 164   0.0000       4.371981       118.9677 
 165   0.0000       4.398422       119.6872 
 166   0.0000       4.523006       123.0772 
 167   0.0000       4.616606       125.6242 
 168   0.0000       4.673961       127.1849 
 169   0.0000       4.705159       128.0339 
 170   0.0000       4.846360       131.8762 
 171   0.0000       4.878399       132.7480 
 172   0.0000       4.900382       133.3462 
 173   0.0000       4.928913       134.1225 
 174   0.0000       5.023934       136.7082 
 175   0.0000       5.225165       142.1840 
 176   0.0000       5.350122       145.5842 
 177   0.0000       5.439604       148.0192 
 178   0.0000       5.475968       149.0087 
 179   0.0000       5.490815       149.4127 
 180   0.0000       5.558021       151.2414 
 181   0.0000       5.563451       151.3892 
 182   0.0000       5.568204       151.5185 
 183   0.0000       5.649907       153.7418 
 184   0.0000       5.709856       155.3731 
 185   0.0000       5.774533       157.1330 
 186   0.0000       5.853716       159.2877 
 187   0.0000       5.899800       160.5417 
 188   0.0000       6.007932       163.4842 
 189   0.0000       6.132056       166.8617 
 190   0.0000       6.726381       183.0341 
 191   0.0000       6.765610       184.1016 
 192   0.0000       6.861820       186.7196 
 193   0.0000       7.085677       192.8111 
 194   0.0000       7.348077       199.9513 
 195   0.0000       7.443873       202.5581 
 196   0.0000      16.015723       435.8100 
 197   0.0000      23.353887       635.4916 
 198   0.0000      44.207515      1202.9476 

                    ********************************
                    * MULLIKEN POPULATION ANALYSIS *
                    ********************************

-----------------------
MULLIKEN ATOMIC CHARGES
-----------------------
   0 H :    0.071854
   1 H :   -0.067532
   2 H :    0.051169
   3 H :    0.026149
   4 H :    0.041052
   5 O :   -0.411209
   6 C :    0.202684
   7 B :    0.085835
Sum of atomic charges:   -0.0000000

--------------------------------
MULLIKEN REDUCED ORBITAL CHARGES
--------------------------------
  0 H s       :     0.916979  s :     0.916979
      pz      :     0.001464  p :     0.011017
      px      :     0.001225
      py      :     0.008328
      dz2     :     0.000016  d :     0.000149
      dxz     :     0.000007
      dyz     :     0.000037
      dx2y2   :     0.000047
      dxy     :     0.000043
  1 H s       :     1.032510  s :     1.032510
      pz      :     0.004344  p :     0.034895
      px      :     0.004731
      py      :     0.025819
      dz2     :     0.000013  d :     0.000127
      dxz     :     0.000007
      dyz     :     0.000030
      dx2y2   :     0.000046
      dxy     :     0.000031
  2 H s       :     0.897597  s :     0.897597
      pz      :     0.017700  p :     0.049729
      px      :     0.018300
      py      :     0.013729
      dz2     :     0.000323  d :     0.001505
      dxz     :     0.000290
      dyz     :     0.000208
      dx2y2   :     0.000455
      dxy     :     0.000229
  3 H s       :     0.942770  s :     0.942770
      pz      :     0.013376  p :     0.030764
      px      :     0.006491
      py      :     0.010897
      dz2     :     0.000009  d :     0.000318
      dxz     :     0.000016
      dyz     :     0.000113
      dx2y2   :     0.000081
      dxy     :     0.000099
  4 H s       :     0.908655  s :     0.908655
      pz      :     0.020125  p :     0.048780
      px      :     0.018525
      py      :     0.010130
      dz2     :     0.000415  d :     0.001513
      dxz     :     0.000244
      dyz     :     0.000234
      dx2y2   :     0.000223
      dxy     :     0.000398
  5 O s       :     3.961628  s :     3.961628
      pz      :     1.298758  p :     4.414367
      px      :     1.598584
      py      :     1.517025
      dz2     :     0.010099  d :     0.033982
      dxz     :     0.004083
      dyz     :     0.005735
      dx2y2   :     0.007495
      dxy     :     0.006570
      f0      :     0.000244  f :     0.001232
      f+1     :     0.000127
      f-1     :     0.000188
      f+2     :     0.000106
      f-2     :     0.000186
      f+3     :     0.000185
      f-3     :     0.000197
  6 C s       :     3.128056  s :     3.128056
      pz      :     0.635520  p :     2.578176
      px      :     0.955004
      py      :     0.987652
      dz2     :     0.019252  d :     0.083378
      dxz     :     0.039003
      dyz     :     0.023806
      dx2y2   :    -0.001204
      dxy     :     0.002521
      f0      :     0.002069  f :     0.007707
      f+1     :     0.001843
      f-1     :     0.001870
      f+2     :     0.000706
      f-2     :     0.000680
      f+3     :     0.000178
      f-3     :     0.000361
  7 B s       :     2.938566  s :     2.938566
      pz      :     0.835316  p :     1.785367
      px      :     0.357168
      py      :     0.592883
      dz2     :     0.030492  d :     0.162616
      dxz     :     0.024317
      dyz     :     0.053388
      dx2y2   :     0.031967
      dxy     :     0.022452
      f0      :     0.004158  f :     0.027616
      f+1     :     0.001928
      f-1     :     0.003773
      f+2     :     0.002740
      f-2     :     0.004293
      f+3     :     0.003521
      f-3     :     0.007203


                     *******************************
                     * LOEWDIN POPULATION ANALYSIS *
                     *******************************

----------------------
LOEWDIN ATOMIC CHARGES
----------------------
   0 H :    0.032447
   1 H :    0.011011
   2 H :   -0.020425
   3 H :    0.015800
   4 H :   -0.016065
   5 O :    0.046877
   6 C :    0.127186
   7 B :   -0.196831

-------------------------------
LOEWDIN REDUCED ORBITAL CHARGES
-------------------------------
  0 H s       :     0.907632  s :     0.907632
      pz      :     0.006506  p :     0.054066
      px      :     0.006281
      py      :     0.041279
      dz2     :     0.000634  d :     0.005855
      dxz     :     0.000237
      dyz     :     0.001547
      dx2y2   :     0.001847
      dxy     :     0.001590
  1 H s       :     0.883131  s :     0.883131
      pz      :     0.009070  p :     0.100248
      px      :     0.012830
      py      :     0.078348
      dz2     :     0.000585  d :     0.005610
      dxz     :     0.000239
      dyz     :     0.001552
      dx2y2   :     0.001727
      dxy     :     0.001507
  2 H s       :     0.714223  s :     0.714223
      pz      :     0.070424  p :     0.278240
      px      :     0.103974
      py      :     0.103841
      dz2     :     0.003766  d :     0.027962
      dxz     :     0.005039
      dyz     :     0.004956
      dx2y2   :     0.007697
      dxy     :     0.006505
  3 H s       :     0.831084  s :     0.831084
      pz      :     0.062278  p :     0.143453
      px      :     0.025663
      py      :     0.055512
      dz2     :     0.002029  d :     0.009663
      dxz     :     0.000870
      dyz     :     0.003452
      dx2y2   :     0.001475
      dxy     :     0.001837
  4 H s       :     0.716171  s :     0.716171
      pz      :     0.076317  p :     0.271960
      px      :     0.115820
      py      :     0.079823
      dz2     :     0.004358  d :     0.027935
      dxz     :     0.008077
      dyz     :     0.003224
      dx2y2   :     0.005327
      dxy     :     0.006949
  5 O s       :     3.312620  s :     3.312620
      pz      :     1.242693  p :     4.271229
      px      :     1.468700
      py      :     1.559836
      dz2     :     0.089666  d :     0.365243
      dxz     :     0.074939
      dyz     :     0.117560
      dx2y2   :     0.033314
      dxy     :     0.049763
      f0      :     0.001078  f :     0.004030
      f+1     :     0.000481
      f-1     :     0.000771
      f+2     :     0.000339
      f-2     :     0.000736
      f+3     :     0.000489
      f-3     :     0.000136
  6 C s       :     2.688268  s :     2.688268
      pz      :     0.748748  p :     2.555009
      px      :     0.911601
      py      :     0.894660
      dz2     :     0.137616  d :     0.583110
      dxz     :     0.203876
      dyz     :     0.161937
      dx2y2   :     0.028680
      dxy     :     0.051001
      f0      :     0.014862  f :     0.046428
      f+1     :     0.009010
      f-1     :     0.011179
      f+2     :     0.003564
      f-2     :     0.004466
      f+3     :     0.001470
      f-3     :     0.001877
  7 B s       :     2.580551  s :     2.580551
      pz      :     0.712723  p :     1.710296
      px      :     0.358983
      py      :     0.638589
      dz2     :     0.130922  d :     0.713980
      dxz     :     0.108957
      dyz     :     0.219669
      dx2y2   :     0.122414
      dxy     :     0.132017
      f0      :     0.034267  f :     0.192004
      f+1     :     0.015387
      f-1     :     0.025122
      f+2     :     0.020268
      f-2     :     0.031109
      f+3     :     0.027376
      f-3     :     0.038476


                      *****************************
                      * MAYER POPULATION ANALYSIS *
                      *****************************

  NA   - Mulliken gross atomic population
  ZA   - Total nuclear charge
  QA   - Mulliken gross atomic charge
  VA   - Mayer's total valence
  BVA  - Mayer's bonded valence
  FA   - Mayer's free valence

  ATOM       NA         ZA         QA         VA         BVA        FA
  0 H      0.9281     1.0000     0.0719     0.9963     0.9963    -0.0000
  1 H      1.0675     1.0000    -0.0675     1.0068     1.0068    -0.0000
  2 H      0.9488     1.0000     0.0512     1.0694     1.0694    -0.0000
  3 H      0.9739     1.0000     0.0261     1.0379     1.0379    -0.0000
  4 H      0.9589     1.0000     0.0411     1.0681     1.0681    -0.0000
  5 O      8.4112     8.0000    -0.4112     2.1803     2.1803    -0.0000
  6 C      5.7973     6.0000     0.2027     3.7427     3.7427    -0.0000
  7 B      4.9142     5.0000     0.0858     3.4059     3.4059    -0.0000

  Mayer bond orders larger than 0.100000
B(  0-H ,  1-H ) :   0.9856 B(  2-H ,  6-C ) :   0.9814 B(  3-H ,  7-B ) :   0.9965 
B(  4-H ,  6-C ) :   0.9917 B(  5-O ,  6-C ) :   0.7244 B(  5-O ,  7-B ) :   1.3142 
B(  6-C ,  7-B ) :   1.0411 

-------
TIMINGS
-------

Total SCF time: 0 days 0 hours 0 min 4 sec 

Total time                  ....       4.760 sec
Sum of individual times     ....       4.523 sec  ( 95.0%)

Fock matrix formation       ....       4.068 sec  ( 85.5%)
  XC integration            ....       0.591 sec  ( 14.5% of F)
    Basis function eval.    ....       0.063 sec  ( 10.7% of XC)
    Density eval.           ....       0.106 sec  ( 18.0% of XC)
    XC-Functional eval.     ....       0.033 sec  (  5.7% of XC)
    XC-Potential eval.      ....       0.235 sec  ( 39.7% of XC)
Diagonalization             ....       0.042 sec  (  0.9%)
Density matrix formation    ....       0.008 sec  (  0.2%)
Population analysis         ....       0.007 sec  (  0.1%)
Initial guess               ....       0.122 sec  (  2.6%)
Orbital Transformation      ....       0.000 sec  (  0.0%)
Orbital Orthonormalization  ....       0.000 sec  (  0.0%)
DIIS solution               ....       0.016 sec  (  0.3%)
SOSCF solution              ....       0.017 sec  (  0.4%)
Grid generation             ....       0.243 sec  (  5.1%)


-------------------------------------------------------------------------------
                          DFT DISPERSION CORRECTION                            
                                                                               
                              DFTD3 V3.1  Rev 1                                
                          USING Becke-Johnson damping                          
-------------------------------------------------------------------------------
The TPSSH functional is recognized
Active option DFTDOPT                   ...         4   

molecular C6(AA) [au] = 477.397028 


            DFT-D V3
 parameters
 s6 scaling factor         :     1.0000 
 a1 scaling factor         :     0.4529 
 s8 scaling factor         :     2.2382 
 a2 scaling factor         :     4.6550 
 ad hoc parameters k1-k3   :    16.0000     1.3333    -4.0000 

 Edisp/kcal,au: -2.128470232929  -0.003391932861 
 E6   /kcal   :  -1.057498457 
 E8   /kcal   :  -1.070971776 
 % E8         :  50.316502427 

-------------------------   ----------------
Dispersion correction           -0.003391933
-------------------------   ----------------


-------------------------   --------------------
FINAL SINGLE POINT ENERGY      -141.214270205540
-------------------------   --------------------


                            ***************************************
                            *     ORCA property calculations      *
                            ***************************************

                                    ---------------------
                                    Active property flags
                                    ---------------------
   (+) Dipole Moment


------------------------------------------------------------------------------
                       ORCA ELECTRIC PROPERTIES CALCULATION
------------------------------------------------------------------------------

Dipole Moment Calculation                       ... on
Quadrupole Moment Calculation                   ... off
Polarizability Calculation                      ... off
GBWName                                         ... 136.gbw
Electron density file                           ... 136.scfp
The origin for moment calculation is the CENTER OF MASS  = ( 0.480722, -1.016230 -0.300766)

-------------
DIPOLE MOMENT
-------------
                                X             Y             Z
Electronic contribution:      1.53457      -5.60537      -1.07478
Nuclear contribution   :     -1.71035       5.24617       1.44476
                        -----------------------------------------
Total Dipole Moment    :     -0.17577      -0.35920       0.36998
                        -----------------------------------------
Magnitude (a.u.)       :      0.54480
Magnitude (Debye)      :      1.38478



--------------------
Rotational spectrum 
--------------------
 
Rotational constants in cm-1:     0.613602     0.430998     0.306642 
Rotational constants in MHz : 18395.316675 12920.983545  9192.908699 

 Dipole components along the rotational axes: 
x,y,z [a.u.] :    -0.359202     0.369979     0.175779 
x,y,z [Debye]:    -0.913020     0.940412     0.446796 

 

Timings for individual modules:

Sum of individual times         ...        6.041 sec (=   0.101 min)
GTO integral calculation        ...        0.832 sec (=   0.014 min)  13.8 %
SCF iterations                  ...        5.209 sec (=   0.087 min)  86.2 %
                             ****ORCA TERMINATED NORMALLY****
TOTAL RUN TIME: 0 days 0 hours 0 minutes 6 seconds 635 msec
