
                                 *****************
                                 * O   R   C   A *
                                 *****************

           --- An Ab Initio, DFT and Semiempirical electronic structure package ---

                  #######################################################
                  #                        -***-                        #
                  #          Department of theory and spectroscopy      #
                  #               Directorship: Frank Neese             #
                  #        Max Planck Institute fuer Kohlenforschung    #
                  #                Kaiser Wilhelm Platz 1               #
                  #                 D-45470 Muelheim/Ruhr               #
                  #                      Germany                        #
                  #                                                     #
                  #                  All rights reserved                #
                  #                        -***-                        #
                  #######################################################


                         Program Version 4.2.0 -  RELEASE  -


 With contributions from (in alphabetic order):
   Daniel Aravena         : Magnetic Suceptibility
   Michael Atanasov       : Ab Initio Ligand Field Theory (pilot matlab implementation)
   Alexander A. Auer      : GIAO ZORA, VPT2
   Ute Becker             : Parallelization
   Giovanni Bistoni       : ED, misc. LED, open-shell LED, HFLED
   Martin Brehm           : Molecular dynamics
   Dmytro Bykov           : SCF Hessian
   Vijay G. Chilkuri      : MRCI spin determinant printing, contributions to CSF-ICE
   Dipayan Datta          : RHF DLPNO-CCSD density
   Achintya Kumar Dutta   : EOM-CC, STEOM-CC
   Dmitry Ganyushin       : Spin-Orbit,Spin-Spin,Magnetic field MRCI
   Miquel Garcia          : C-PCM Hessian, Gaussian charge scheme
   Yang Guo               : DLPNO-NEVPT2, CIM, IAO-localization
   Andreas Hansen         : Spin unrestricted coupled pair/coupled cluster methods
   Benjamin Helmich-Paris : CASSCF linear response (MC-RPA)
   Lee Huntington         : MR-EOM, pCC
   Robert Izsak           : Overlap fitted RIJCOSX, COSX-SCS-MP3, EOM
   Christian Kollmar      : KDIIS, OOCD, Brueckner-CCSD(T), CCSD density
   Simone Kossmann        : Meta GGA functionals, TD-DFT gradient, OOMP2, MP2 Hessian
   Martin Krupicka        : AUTO-CI
   Lucas Lang             : DCDCAS
   Dagmar Lenk            : GEPOL surface, SMD
   Dimitrios Liakos       : Extrapolation schemes; Compound Job, initial MDCI parallelization
   Dimitrios Manganas     : Further ROCIS development; embedding schemes
   Dimitrios Pantazis     : SARC Basis sets
   Taras Petrenko         : DFT Hessian,TD-DFT gradient, ASA, ECA, R-Raman, ABS, FL, XAS/XES, NRVS
   Peter Pinski           : DLPNO-MP2, DLPNO-MP2 Gradient
   Christoph Reimann      : Effective Core Potentials
   Marius Retegan         : Local ZFS, SOC
   Christoph Riplinger    : Optimizer, TS searches, QM/MM, DLPNO-CCSD(T), (RO)-DLPNO pert. Triples
   Tobias Risthaus        : Range-separated hybrids, TD-DFT gradient, RPA, STAB
   Michael Roemelt        : Original ROCIS implementation
   Masaaki Saitow         : Open-shell DLPNO-CCSD energy and density
   Barbara Sandhoefer     : DKH picture change effects
   Avijit Sen             : IP-ROCIS
   Kantharuban Sivalingam : CASSCF convergence, NEVPT2, FIC-MRCI
   Bernardo de Souza      : ESD, SOC TD-DFT
   Georgi Stoychev        : AutoAux, RI-MP2 NMR
   Willem Van den Heuvel  : Paramagnetic NMR
   Boris Wezisla          : Elementary symmetry handling
   Frank Wennmohs         : Technical directorship


 We gratefully acknowledge several colleagues who have allowed us to
 interface, adapt or use parts of their codes:
   Stefan Grimme, W. Hujo, H. Kruse,             : VdW corrections, initial TS optimization,
                  C. Bannwarth                     DFT functionals, gCP, sTDA/sTD-DF
   Ed Valeev, F. Pavosevic, A. Kumar             : LibInt (2-el integral package), F12 methods
   Garnet Chan, S. Sharma, J. Yang, R. Olivares  : DMRG
   Ulf Ekstrom                                   : XCFun DFT Library
   Mihaly Kallay                                 : mrcc  (arbitrary order and MRCC methods)
   Andreas Klamt, Michael Diedenhofen            : otool_cosmo (COSMO solvation model)
   Jiri Pittner, Ondrej Demel                    : Mk-CCSD
   Frank Weinhold                                : gennbo (NPA and NBO analysis)
   Christopher J. Cramer and Donald G. Truhlar   : smd solvation model
   Lars Goerigk                                  : TD-DFT with DH, B97 family of functionals
   V. Asgeirsson, H. Jonsson                     : NEB implementation
   FAccTs GmbH                                   : IRC, NEB, NEB-TS, Multilevel, MM, QM/MM, CI optimization
   S Lehtola, MJT Oliveira, MAL Marques          : LibXC Library


 Your calculation uses the libint2 library for the computation of 2-el integrals
 For citations please refer to: http://libint.valeyev.net

 Your ORCA version has been built with support for libXC version: 4.2.3
 For citations please refer to: https://tddft.org/programs/libxc/

 This ORCA versions uses:
   CBLAS   interface :  Fast vector & matrix operations
   LAPACKE interface :  Fast linear algebra routines
   SCALAPACK package :  Parallel linear algebra routines


Your calculation utilizes the atom-pairwise dispersion correction
with the Becke-Johnson damping scheme (D3BJ)
Cite in your paper:
S.Grimme, S.Ehrlich, L.Goerigk, J Comput Chem, (2011), 32, 1456–1465 
S.Grimme, J.Antony, S.Ehrlich and H.Krieg, J.Chem.Phys., 132, (2010), 154104 
   

----- Orbital basis set information -----
Your calculation utilizes the basis: def2-TZVPPD
   F. Weigend and R. Ahlrichs, Phys. Chem. Chem. Phys. 7, 3297 (2005).
   D. Rappoport and F. Furche, J. Chem. Phys. 133 134105 (2010).

----- AuxJK basis set information -----
Your calculation utilizes the auxiliary basis: def2/JK
   H-Ba, Hf-Rn: F. Weigend, J. Comput. Chem. 29, 167 (2008).

================================================================================
                                        WARNINGS
                       Please study these warnings very carefully!
================================================================================


INFO   : the flag for use of LIBINT has been found!

================================================================================
                                       INPUT FILE
================================================================================
NAME = 138.in
|  1> #
|  2> # 138 TPSSh-D3BJ/Def2-TZVPPD
|  3> #
|  4> ! tpssh d3bj def2-tzvppd def2/jk grid4 nofinalgrid
|  5> 
|  6> *xyz 0 1
|  7> H          0.64849       -1.47778       -0.13722
|  8> H         -0.62659       -0.18590       -3.09890
|  9> H         -0.40094       -0.71477       -2.61128
| 10> H          0.74472        0.82794        2.20080
| 11> H          0.41684       -1.04544        0.48242
| 12> H         -0.86873        0.85706        2.13389
| 13> Na         0.12711        1.09566       -0.53418
| 14> N         -0.04090        0.64323        1.56447
| 15> *
| 16> 
| 17> %maxcore 5000
| 18> 
| 19> %pal
| 20> nprocs = 24
| 21> end
| 22> 
| 23> 
| 24>                          ****END OF INPUT****
================================================================================

                       ****************************
                       * Single Point Calculation *
                       ****************************

---------------------------------
CARTESIAN COORDINATES (ANGSTROEM)
---------------------------------
  H      0.648490   -1.477780   -0.137220
  H     -0.626590   -0.185900   -3.098900
  H     -0.400940   -0.714770   -2.611280
  H      0.744720    0.827940    2.200800
  H      0.416840   -1.045440    0.482420
  H     -0.868730    0.857060    2.133890
  Na     0.127110    1.095660   -0.534180
  N     -0.040900    0.643230    1.564470

----------------------------
CARTESIAN COORDINATES (A.U.)
----------------------------
  NO LB      ZA    FRAG     MASS         X           Y           Z
   0 H     1.0000    0     1.008    1.225469   -2.792599   -0.259308
   1 H     1.0000    0     1.008   -1.184083   -0.351300   -5.856072
   2 H     1.0000    0     1.008   -0.757667   -1.350720   -4.934604
   3 H     1.0000    0     1.008    1.407317    1.564580    4.158909
   4 H     1.0000    0     1.008    0.787713   -1.975595    0.911642
   5 H     1.0000    0     1.008   -1.641662    1.619609    4.032468
   6 Na   11.0000    0    22.990    0.240203    2.070497   -1.009454
   7 N     7.0000    0    14.007   -0.077290    1.215529    2.956420

--------------------------------
INTERNAL COORDINATES (ANGSTROEM)
--------------------------------
 H      0   0   0     0.000000000000     0.00000000     0.00000000
 H      1   0   0     3.473662528686     0.00000000     0.00000000
 H      2   1   0     0.753919534035    22.74911369     0.00000000
 H      1   2   3     3.285109199357   110.88703965   192.97066018
 H      1   2   3     0.790274210448   110.94410563   215.49760303
 H      4   1   2     1.615099323571    87.35815731    65.14463003
 Na     5   1   2     2.387829190478   101.08689608   332.07028859
 N      6   4   1     1.027260879329    38.20269716   333.56997625

---------------------------
INTERNAL COORDINATES (A.U.)
---------------------------
 H      0   0   0     0.000000000000     0.00000000     0.00000000
 H      1   0   0     6.564270860882     0.00000000     0.00000000
 H      2   1   0     1.424701446340    22.74911369     0.00000000
 H      1   2   3     6.207956706810   110.88703965   192.97066018
 H      1   2   3     1.493401828449   110.94410563   215.49760303
 H      4   1   2     3.052095400631    87.35815731    65.14463003
 Na     5   1   2     4.512343224587   101.08689608   332.07028859
 N      6   4   1     1.941241730023    38.20269716   333.56997625

---------------------
BASIS SET INFORMATION
---------------------
There are 3 groups of distinct atoms

 Group   1 Type H   : 5s3p1d contracted to 3s3p1d pattern {311/111/1}
 Group   2 Type Na  : 14s9p3d contracted to 5s5p3d pattern {73211/51111/111}
 Group   3 Type N   : 12s6p3d1f contracted to 6s3p3d1f pattern {621111/411/111/1}

Atom   0H    basis set group =>   1
Atom   1H    basis set group =>   1
Atom   2H    basis set group =>   1
Atom   3H    basis set group =>   1
Atom   4H    basis set group =>   1
Atom   5H    basis set group =>   1
Atom   6Na   basis set group =>   2
Atom   7N    basis set group =>   3
----------------------------------
AUXILIARY/JK BASIS SET INFORMATION
----------------------------------
There are 3 groups of distinct atoms

 Group   1 Type H   : 4s2p2d contracted to 2s2p2d pattern {31/11/11}
 Group   2 Type Na  : 16s12p9d4f1g contracted to 13s9p7d4f1g pattern {4111111111111/411111111/3111111/1111/1}
 Group   3 Type N   : 14s10p6d2f1g contracted to 10s8p4d2f1g pattern {5111111111/31111111/3111/11/1}

Atom   0H    basis set group =>   1
Atom   1H    basis set group =>   1
Atom   2H    basis set group =>   1
Atom   3H    basis set group =>   1
Atom   4H    basis set group =>   1
Atom   5H    basis set group =>   1
Atom   6Na   basis set group =>   2
Atom   7N    basis set group =>   3


           ************************************************************
           *        Program running with 24 parallel MPI-processes    *
           *              working on a common directory               *
           ************************************************************
------------------------------------------------------------------------------
                           ORCA GTO INTEGRAL CALCULATION
------------------------------------------------------------------------------

                         BASIS SET STATISTICS AND STARTUP INFO

 # of primitive gaussian shells          ...  102
 # of primitive gaussian functions       ...  222
 # of contracted shells                  ...   68
 # of contracted basis functions         ...  174
 Highest angular momentum                ...    3
 Maximum contraction depth               ...    7
 Integral package used                   ... LIBINT
 Integral threshhold            Thresh   ...  1.000e-10
 Primitive cut-off              TCut     ...  1.000e-11


------------------------------ INTEGRAL EVALUATION ----------------------------


 * One electron integrals 
 Pre-screening matrix                    ... done
 Shell pair data                         ... done (   0.001 sec)



           ************************************************************
           *        Program running with 24 parallel MPI-processes    *
           *              working on a common directory               *
           ************************************************************
-------------------------------------------------------------------------------
                                 ORCA SCF
-------------------------------------------------------------------------------

------------
SCF SETTINGS
------------
Hamiltonian:
 Density Functional     Method          .... DFT(GTOs)
 Exchange Functional    Exchange        .... TPSS
 Correlation Functional Correlation     .... TPSS
 LDA part of GGA corr.  LDAOpt          .... PW91-LDA
 Gradients option       PostSCFGGA      .... off
 Hybrid DFT is turned on
   Fraction HF Exchange ScalHFX         ....  0.100000
   Scaling of DF-GGA-X  ScalDFX         ....  0.900000
   Scaling of DF-GGA-C  ScalDFC         ....  1.000000
   Scaling of DF-LDA-C  ScalLDAC        ....  1.000000
   Perturbative correction              ....  0.000000
   Density functional embedding theory  .... OFF
   NL short-range parameter             ....  5.200000


General Settings:
 Integral files         IntName         .... 138
 Hartree-Fock type      HFTyp           .... RHF
 Total Charge           Charge          ....    0
 Multiplicity           Mult            ....    1
 Number of Electrons    NEL             ....   24
 Basis Dimension        Dim             ....  174
 Nuclear Repulsion      ENuc            ....     47.0888366337 Eh

Convergence Acceleration:
 DIIS                   CNVDIIS         .... on
   Start iteration      DIISMaxIt       ....    12
   Startup error        DIISStart       ....  0.200000
   # of expansion vecs  DIISMaxEq       ....     5
   Bias factor          DIISBfac        ....   1.050
   Max. coefficient     DIISMaxC        ....  10.000
 Newton-Raphson         CNVNR           .... off
 SOSCF                  CNVSOSCF        .... on
   Start iteration      SOSCFMaxIt      ....   150
   Startup grad/error   SOSCFStart      ....  0.003300
 Level Shifting         CNVShift        .... on
   Level shift para.    LevelShift      ....    0.2500
   Turn off err/grad.   ShiftErr        ....    0.0010
 Zerner damping         CNVZerner       .... off
 Static damping         CNVDamp         .... on
   Fraction old density DampFac         ....    0.7000
   Max. Damping (<1)    DampMax         ....    0.9800
   Min. Damping (>=0)   DampMin         ....    0.0000
   Turn off err/grad.   DampErr         ....    0.1000
 Fernandez-Rico         CNVRico         .... off

SCF Procedure:
 Maximum # iterations   MaxIter         ....   125
 SCF integral mode      SCFMode         .... Direct
   Integral package                     .... LIBINT
 Reset frequency        DirectResetFreq ....    20
 Integral Threshold     Thresh          ....  1.000e-10 Eh
 Primitive CutOff       TCut            ....  1.000e-11 Eh

Convergence Tolerance:
 Convergence Check Mode ConvCheckMode   .... Total+1el-Energy
 Convergence forced     ConvForced      .... 0
 Energy Change          TolE            ....  1.000e-06 Eh
 1-El. energy change                    ....  1.000e-03 Eh
 Orbital Gradient       TolG            ....  5.000e-05
 Orbital Rotation angle TolX            ....  5.000e-05
 DIIS Error             TolErr          ....  1.000e-06


Diagonalization of the overlap matrix:
Smallest eigenvalue                        ... 6.521e-05
Time for diagonalization                   ...    0.008 sec
Threshold for overlap eigenvalues          ... 1.000e-08
Number of eigenvalues below threshold      ... 0
Time for construction of square roots      ...    0.003 sec
Total time needed                          ...    0.011 sec

-------------------
DFT GRID GENERATION
-------------------

General Integration Accuracy     IntAcc      ...  4.670
Radial Grid Type                 RadialGrid  ... Gauss-Chebyshev
Angular Grid (max. acc.)         AngularGrid ... Lebedev-302
Angular grid pruning method      GridPruning ... 3 (G Style)
Weight generation scheme         WeightScheme... Becke
Basis function cutoff            BFCut       ...    1.0000e-10
Integration weight cutoff        WCut        ...    1.0000e-14
Grids for H and He will be reduced by one unit

# of grid points (after initial pruning)     ...  33110 (   0.0 sec)
# of grid points (after weights+screening)   ...  31917 (   0.0 sec)
nearest neighbour list constructed           ...    0.0 sec
Grid point re-assignment to atoms done       ...    0.0 sec
Grid point division into batches done        ...    0.1 sec
Reduced shell lists constructed in    0.1 sec

Total number of grid points                  ...    31917
Total number of batches                      ...      502
Average number of points per batch           ...       63
Average number of grid points per atom       ...     3990
Average number of shells per batch           ...    32.36 (47.59%)
Average number of basis functions per batch  ...    76.55 (43.99%)
Average number of large shells per batch     ...    24.32 (75.14%)
Average number of large basis fcns per batch ...    57.05 (74.52%)
Maximum spatial batch extension              ...  22.21, 20.02, 14.73 au
Average spatial batch extension              ...   0.38,  0.37,  0.30 au

Time for grid setup =    0.163 sec

------------------------------
INITIAL GUESS: MODEL POTENTIAL
------------------------------
Loading Hartree-Fock densities                     ... done
Calculating cut-offs                               ... done
Setting up the integral package                    ... done
Initializing the effective Hamiltonian             ... done
Starting the Coulomb interaction                   ... done (   0.0 sec)
Reading the grid                                   ... done
Mapping shells                                     ... done
Starting the XC term evaluation                    ... done (   0.0 sec)
  promolecular density results
     # of electrons  =     23.997056786
     EX              =    -22.155784732
     EC              =     -0.745309296
     EX+EC           =    -22.901094028
Transforming the Hamiltonian                       ... done (   0.0 sec)
Diagonalizing the Hamiltonian                      ... done (   0.0 sec)
Back transforming the eigenvectors                 ... done (   0.0 sec)
Now organizing SCF variables                       ... done
                      ------------------
                      INITIAL GUESS DONE (   0.3 sec)
                      ------------------
--------------
SCF ITERATIONS
--------------
ITER       Energy         Delta-E        Max-DP      RMS-DP      [F,P]     Damp
               ***  Starting incremental Fock matrix formation  ***
  0   -220.3652187337   0.000000000000 0.15534460  0.00286211  0.4648209 0.7000
  1   -220.5107860410  -0.145567307275 0.18350337  0.00265027  0.1576796 0.7000
                               ***Turning on DIIS***
  2   -220.5391713597  -0.028385318752 0.17721593  0.00310585  0.0315428 0.0000
  3   -220.6071151418  -0.067943782079 0.05492903  0.00072974  0.1014404 0.7000
  4   -220.6148110059  -0.007695864141 0.22180010  0.00295855  0.0712343 0.0000
  5   -220.6257201484  -0.010909142504 0.03587637  0.00050609  0.0311556 0.0000
  6   -220.6267679575  -0.001047809023 0.01068619  0.00019519  0.0140355 0.0000
  7   -220.6270591576  -0.000291200158 0.00387209  0.00009162  0.0058582 0.0000
                      *** Initiating the SOSCF procedure ***
                           *** Shutting down DIIS ***
                      *** Re-Reading the Fockian *** 
                      *** Removing any level shift *** 
ITER      Energy       Delta-E        Grad      Rot      Max-DP    RMS-DP
  8   -220.62713003  -0.0000708770  0.001058  0.001058  0.002781  0.000071
               *** Restarting incremental Fock matrix formation ***
  9   -220.62714819  -0.0000181564  0.000794  0.008804  0.007467  0.000149
 10   -220.62716276  -0.0000145738  0.000167  0.000766  0.006286  0.000099
 11   -220.62716014   0.0000026296  0.000430  0.000587  0.002937  0.000049
 12   -220.62716431  -0.0000041714  0.000064  0.000114  0.000475  0.000008
 13   -220.62716435  -0.0000000393  0.000053  0.000068  0.000182  0.000003
                 **** Energy Check signals convergence ****
              ***Rediagonalizing the Fockian in SOSCF/NRSCF***

               *****************************************************
               *                     SUCCESS                       *
               *           SCF CONVERGED AFTER  14 CYCLES          *
               *****************************************************


----------------
TOTAL SCF ENERGY
----------------

Total Energy       :         -220.62716438 Eh           -6003.57036 eV

Components:
Nuclear Repulsion  :           47.08883663 Eh            1281.35239 eV
Electronic Energy  :         -267.71600102 Eh           -7284.92275 eV
One Electron Energy:         -400.51041744 Eh          -10898.44252 eV
Two Electron Energy:          132.79441642 Eh            3613.51978 eV

Virial components:
Potential Energy   :         -440.16042058 Eh          -11977.37396 eV
Kinetic Energy     :          219.53325619 Eh            5973.80360 eV
Virial Ratio       :            2.00498288


DFT components:
N(Alpha)           :       11.999989577518 electrons
N(Beta)            :       11.999989577518 electrons
N(Total)           :       23.999979155037 electrons
E(X)               :      -20.523141665484 Eh       
E(C)               :       -0.768871170394 Eh       
E(XC)              :      -21.292012835878 Eh       
DFET-embed. en.    :        0.000000000000 Eh       

---------------
SCF CONVERGENCE
---------------

  Last Energy change         ...   -3.6123e-08  Tolerance :   1.0000e-06
  Last MAX-Density change    ...    1.6015e-05  Tolerance :   1.0000e-05
  Last RMS-Density change    ...    4.0059e-07  Tolerance :   1.0000e-06
  Last Orbital Gradient      ...    2.6648e-06  Tolerance :   5.0000e-05
  Last Orbital Rotation      ...    3.3574e-06  Tolerance :   5.0000e-05

             **** THE GBW FILE WAS UPDATED (138.gbw) ****
             **** DENSITY FILE WAS UPDATED (138.scfp) ****
             **** ENERGY FILE WAS UPDATED (138.en.tmp) ****
             **** THE GBW FILE WAS UPDATED (138.gbw) ****
             **** DENSITY FILE WAS UPDATED (138.scfp) ****
----------------
ORBITAL ENERGIES
----------------

  NO   OCC          E(Eh)            E(eV) 
   0   2.0000     -38.363104     -1043.9131 
   1   2.0000     -14.127605      -384.4317 
   2   2.0000      -2.171001       -59.0759 
   3   2.0000      -1.098320       -29.8868 
   4   2.0000      -1.097375       -29.8611 
   5   2.0000      -1.093692       -29.7609 
   6   2.0000      -0.691100       -18.8058 
   7   2.0000      -0.459359       -12.4998 
   8   2.0000      -0.385653       -10.4942 
   9   2.0000      -0.340589        -9.2679 
  10   2.0000      -0.218636        -5.9494 
  11   2.0000      -0.136624        -3.7177 
  12   0.0000      -0.046763        -1.2725 
  13   0.0000      -0.007170        -0.1951 
  14   0.0000       0.002866         0.0780 
  15   0.0000       0.008394         0.2284 
  16   0.0000       0.024196         0.6584 
  17   0.0000       0.025521         0.6945 
  18   0.0000       0.037266         1.0141 
  19   0.0000       0.053065         1.4440 
  20   0.0000       0.065754         1.7893 
  21   0.0000       0.088586         2.4106 
  22   0.0000       0.102536         2.7901 
  23   0.0000       0.121159         3.2969 
  24   0.0000       0.127835         3.4786 
  25   0.0000       0.135125         3.6769 
  26   0.0000       0.140077         3.8117 
  27   0.0000       0.144760         3.9391 
  28   0.0000       0.186950         5.0872 
  29   0.0000       0.190635         5.1875 
  30   0.0000       0.197022         5.3612 
  31   0.0000       0.202431         5.5084 
  32   0.0000       0.212914         5.7937 
  33   0.0000       0.217949         5.9307 
  34   0.0000       0.236381         6.4322 
  35   0.0000       0.242979         6.6118 
  36   0.0000       0.252333         6.8663 
  37   0.0000       0.258929         7.0458 
  38   0.0000       0.273346         7.4381 
  39   0.0000       0.280326         7.6280 
  40   0.0000       0.281749         7.6668 
  41   0.0000       0.303926         8.2703 
  42   0.0000       0.323792         8.8108 
  43   0.0000       0.342852         9.3295 
  44   0.0000       0.350321         9.5327 
  45   0.0000       0.354975         9.6594 
  46   0.0000       0.370957        10.0943 
  47   0.0000       0.373890        10.1741 
  48   0.0000       0.393513        10.7080 
  49   0.0000       0.443876        12.0785 
  50   0.0000       0.467133        12.7113 
  51   0.0000       0.480690        13.0802 
  52   0.0000       0.486149        13.2288 
  53   0.0000       0.495338        13.4788 
  54   0.0000       0.517939        14.0938 
  55   0.0000       0.530859        14.4454 
  56   0.0000       0.549374        14.9492 
  57   0.0000       0.577244        15.7076 
  58   0.0000       0.664010        18.0686 
  59   0.0000       0.711117        19.3505 
  60   0.0000       0.726871        19.7792 
  61   0.0000       0.737684        20.0734 
  62   0.0000       0.742016        20.1913 
  63   0.0000       0.749990        20.4083 
  64   0.0000       0.776624        21.1330 
  65   0.0000       0.817507        22.2455 
  66   0.0000       0.826400        22.4875 
  67   0.0000       0.875386        23.8205 
  68   0.0000       0.881423        23.9847 
  69   0.0000       0.921156        25.0659 
  70   0.0000       1.005639        27.3648 
  71   0.0000       1.035704        28.1829 
  72   0.0000       1.059962        28.8430 
  73   0.0000       1.061884        28.8953 
  74   0.0000       1.067040        29.0356 
  75   0.0000       1.087940        29.6044 
  76   0.0000       1.093743        29.7623 
  77   0.0000       1.110952        30.2306 
  78   0.0000       1.133475        30.8434 
  79   0.0000       1.141441        31.0602 
  80   0.0000       1.166348        31.7380 
  81   0.0000       1.189641        32.3718 
  82   0.0000       1.213244        33.0140 
  83   0.0000       1.249778        34.0082 
  84   0.0000       1.257545        34.2195 
  85   0.0000       1.309205        35.6253 
  86   0.0000       1.318335        35.8737 
  87   0.0000       1.367370        37.2080 
  88   0.0000       1.388260        37.7765 
  89   0.0000       1.433901        39.0184 
  90   0.0000       1.479572        40.2612 
  91   0.0000       1.570340        42.7311 
  92   0.0000       1.627910        44.2977 
  93   0.0000       1.730608        47.0922 
  94   0.0000       1.795302        48.8527 
  95   0.0000       1.842591        50.1394 
  96   0.0000       1.847817        50.2817 
  97   0.0000       2.382544        64.8323 
  98   0.0000       2.446380        66.5694 
  99   0.0000       2.462981        67.0211 
 100   0.0000       2.520545        68.5875 
 101   0.0000       2.556507        69.5661 
 102   0.0000       2.568802        69.9007 
 103   0.0000       2.626353        71.4667 
 104   0.0000       2.704839        73.6024 
 105   0.0000       2.904804        79.0437 
 106   0.0000       2.954823        80.4048 
 107   0.0000       2.988601        81.3240 
 108   0.0000       3.006517        81.8115 
 109   0.0000       3.044202        82.8370 
 110   0.0000       3.197482        87.0079 
 111   0.0000       3.223883        87.7263 
 112   0.0000       3.257124        88.6309 
 113   0.0000       3.407370        92.7192 
 114   0.0000       3.441209        93.6401 
 115   0.0000       3.479328        94.6773 
 116   0.0000       3.496202        95.1365 
 117   0.0000       3.535020        96.1928 
 118   0.0000       3.544179        96.4420 
 119   0.0000       3.564620        96.9982 
 120   0.0000       3.584704        97.5448 
 121   0.0000       3.687565       100.3437 
 122   0.0000       3.733145       101.5840 
 123   0.0000       3.777265       102.7846 
 124   0.0000       3.785816       103.0173 
 125   0.0000       3.792479       103.1986 
 126   0.0000       3.809253       103.6550 
 127   0.0000       3.834223       104.3345 
 128   0.0000       3.841795       104.5406 
 129   0.0000       3.852280       104.8259 
 130   0.0000       3.884797       105.7107 
 131   0.0000       3.894019       105.9617 
 132   0.0000       3.930404       106.9517 
 133   0.0000       3.944125       107.3251 
 134   0.0000       3.981225       108.3347 
 135   0.0000       3.984718       108.4297 
 136   0.0000       4.010637       109.1350 
 137   0.0000       4.044278       110.0504 
 138   0.0000       4.090610       111.3112 
 139   0.0000       4.104543       111.6903 
 140   0.0000       4.153684       113.0275 
 141   0.0000       4.205515       114.4379 
 142   0.0000       4.387802       119.3982 
 143   0.0000       4.446561       120.9971 
 144   0.0000       4.470312       121.6434 
 145   0.0000       4.550422       123.8233 
 146   0.0000       4.563884       124.1896 
 147   0.0000       4.727300       128.6364 
 148   0.0000       4.772976       129.8793 
 149   0.0000       4.925515       134.0301 
 150   0.0000       4.976392       135.4145 
 151   0.0000       5.020386       136.6116 
 152   0.0000       5.447075       148.2224 
 153   0.0000       5.497487       149.5942 
 154   0.0000       5.501960       149.7160 
 155   0.0000       5.502636       149.7343 
 156   0.0000       5.578504       151.7988 
 157   0.0000       5.622818       153.0047 
 158   0.0000       5.667003       154.2070 
 159   0.0000       5.692502       154.9009 
 160   0.0000       5.704097       155.2164 
 161   0.0000       5.739399       156.1770 
 162   0.0000       5.742963       156.2740 
 163   0.0000       5.767822       156.9504 
 164   0.0000       5.823567       158.4673 
 165   0.0000       5.832282       158.7045 
 166   0.0000       5.853670       159.2865 
 167   0.0000       5.861125       159.4893 
 168   0.0000       6.147413       167.2796 
 169   0.0000       6.689773       182.0380 
 170   0.0000       6.740365       183.4147 
 171   0.0000       7.104023       193.3103 
 172   0.0000       7.457120       202.9185 
 173   0.0000      32.593059       886.9022 

                    ********************************
                    * MULLIKEN POPULATION ANALYSIS *
                    ********************************

-----------------------
MULLIKEN ATOMIC CHARGES
-----------------------
   0 H :   -0.092413
   1 H :   -0.024553
   2 H :    0.047910
   3 H :    0.004875
   4 H :    0.075297
   5 H :   -0.037645
   6 Na:    0.763605
   7 N :   -0.737075
Sum of atomic charges:    0.0000000

--------------------------------
MULLIKEN REDUCED ORBITAL CHARGES
--------------------------------
  0 H s       :     1.029020  s :     1.029020
      pz      :     0.032591  p :     0.063031
      px      :     0.006059
      py      :     0.024381
      dz2     :     0.000085  d :     0.000362
      dxz     :     0.000061
      dyz     :     0.000151
      dx2y2   :     0.000028
      dxy     :     0.000038
  1 H s       :     1.007310  s :     1.007310
      pz      :     0.009250  p :     0.017129
      px      :     0.001801
      py      :     0.006077
      dz2     :     0.000004  d :     0.000115
      dxz     :     0.000025
      dyz     :     0.000038
      dx2y2   :     0.000037
      dxy     :     0.000011
  2 H s       :     0.939442  s :     0.939442
      pz      :     0.001117  p :     0.012501
      px      :     0.001269
      py      :     0.010114
      dz2     :     0.000008  d :     0.000148
      dxz     :     0.000036
      dyz     :     0.000045
      dx2y2   :     0.000044
      dxy     :     0.000015
  3 H s       :     0.804030  s :     0.804030
      pz      :     0.071582  p :     0.186839
      px      :     0.031002
      py      :     0.084255
      dz2     :     0.000809  d :     0.004256
      dxz     :     0.001064
      dyz     :     0.000484
      dx2y2   :     0.000929
      dxy     :     0.000971
  4 H s       :     0.799206  s :     0.799206
      pz      :     0.074437  p :     0.125679
      px      :     0.016827
      py      :     0.034414
      dz2     :     0.000025  d :    -0.000181
      dxz     :    -0.000029
      dyz     :    -0.000206
      dx2y2   :     0.000032
      dxy     :    -0.000004
  5 H s       :     0.817915  s :     0.817915
      pz      :     0.080474  p :     0.215346
      px      :     0.034185
      py      :     0.100686
      dz2     :     0.000719  d :     0.004384
      dxz     :     0.001145
      dyz     :     0.000435
      dx2y2   :     0.001007
      dxy     :     0.001078
  6 Nas       :     4.130668  s :     4.130668
      pz      :     2.008292  p :     6.064546
      px      :     2.005870
      py      :     2.050384
      dz2     :     0.006814  d :     0.041181
      dxz     :     0.003714
      dyz     :     0.022641
      dx2y2   :     0.006908
      dxy     :     0.001103
  7 N s       :     3.592593  s :     3.592593
      pz      :     1.455918  p :     4.136100
      px      :     1.093724
      py      :     1.586457
      dz2     :     0.000982  d :     0.007749
      dxz     :     0.000492
      dyz     :    -0.001501
      dx2y2   :     0.005193
      dxy     :     0.002583
      f0      :     0.000004  f :     0.000634
      f+1     :    -0.000006
      f-1     :     0.000042
      f+2     :     0.000277
      f-2     :     0.000043
      f+3     :     0.000167
      f-3     :     0.000107


                     *******************************
                     * LOEWDIN POPULATION ANALYSIS *
                     *******************************

----------------------
LOEWDIN ATOMIC CHARGES
----------------------
   0 H :    0.034008
   1 H :    0.045738
   2 H :    0.031102
   3 H :   -0.294527
   4 H :   -0.066403
   5 H :   -0.296361
   6 Na:    0.505630
   7 N :    0.040813

-------------------------------
LOEWDIN REDUCED ORBITAL CHARGES
-------------------------------
  0 H s       :     0.872936  s :     0.872936
      pz      :     0.046160  p :     0.088063
      px      :     0.008363
      py      :     0.033540
      dz2     :     0.000877  d :     0.004993
      dxz     :     0.000805
      dyz     :     0.002725
      dx2y2   :     0.000193
      dxy     :     0.000394
  1 H s       :     0.885887  s :     0.885887
      pz      :     0.029532  p :     0.062494
      px      :     0.006017
      py      :     0.026945
      dz2     :     0.000107  d :     0.005881
      dxz     :     0.000682
      dyz     :     0.003615
      dx2y2   :     0.000702
      dxy     :     0.000775
  2 H s       :     0.874773  s :     0.874773
      pz      :     0.042707  p :     0.088282
      px      :     0.008373
      py      :     0.037202
      dz2     :     0.000077  d :     0.005844
      dxz     :     0.000642
      dyz     :     0.003594
      dx2y2   :     0.000755
      dxy     :     0.000775
  3 H s       :     0.704039  s :     0.704039
      pz      :     0.192949  p :     0.533773
      px      :     0.151229
      py      :     0.189595
      dz2     :     0.012808  d :     0.056716
      dxz     :     0.014613
      dyz     :     0.008193
      dx2y2   :     0.008787
      dxy     :     0.012315
  4 H s       :     0.762173  s :     0.762173
      pz      :     0.139543  p :     0.298269
      px      :     0.028800
      py      :     0.129926
      dz2     :     0.001350  d :     0.005961
      dxz     :     0.000897
      dyz     :     0.002829
      dx2y2   :     0.000425
      dxy     :     0.000460
  5 H s       :     0.705836  s :     0.705836
      pz      :     0.186419  p :     0.534021
      px      :     0.155307
      py      :     0.192295
      dz2     :     0.010983  d :     0.056505
      dxz     :     0.015304
      dyz     :     0.006699
      dx2y2   :     0.009834
      dxy     :     0.013684
  6 Nas       :     4.066474  s :     4.066474
      pz      :     2.095724  p :     6.212489
      px      :     2.014140
      py      :     2.102625
      dz2     :     0.076667  d :     0.215407
      dxz     :     0.028830
      dyz     :     0.073613
      dx2y2   :     0.029213
      dxy     :     0.007084
  7 N s       :     3.057455  s :     3.057455
      pz      :     1.294392  p :     3.716256
      px      :     1.106215
      py      :     1.315649
      dz2     :     0.048837  d :     0.179771
      dxz     :     0.052886
      dyz     :     0.038762
      dx2y2   :     0.027941
      dxy     :     0.011345
      f0      :     0.000769  f :     0.005704
      f+1     :     0.001444
      f-1     :     0.000044
      f+2     :     0.001883
      f-2     :     0.000770
      f+3     :     0.000229
      f-3     :     0.000564


                      *****************************
                      * MAYER POPULATION ANALYSIS *
                      *****************************

  NA   - Mulliken gross atomic population
  ZA   - Total nuclear charge
  QA   - Mulliken gross atomic charge
  VA   - Mayer's total valence
  BVA  - Mayer's bonded valence
  FA   - Mayer's free valence

  ATOM       NA         ZA         QA         VA         BVA        FA
  0 H      1.0924     1.0000    -0.0924     1.1649     1.1649     0.0000
  1 H      1.0246     1.0000    -0.0246     0.9922     0.9922    -0.0000
  2 H      0.9521     1.0000     0.0479     0.9941     0.9941    -0.0000
  3 H      0.9951     1.0000     0.0049     1.2948     1.2948     0.0000
  4 H      0.9247     1.0000     0.0753     1.0563     1.0563     0.0000
  5 H      1.0376     1.0000    -0.0376     1.3538     1.3538     0.0000
  6 Na    10.2364    11.0000     0.7636     0.4505     0.4505    -0.0000
  7 N      7.7371     7.0000    -0.7371     2.8833     2.8833     0.0000

  Mayer bond orders larger than 0.100000
B(  0-H ,  4-H ) :   1.0136 B(  1-H ,  2-H ) :   0.9775 B(  3-H ,  7-N ) :   1.2114 
B(  5-H ,  7-N ) :   1.2667 B(  6-Na,  7-N ) :   0.2996 

-------
TIMINGS
-------

Total SCF time: 0 days 0 hours 0 min 3 sec 

Total time                  ....       3.593 sec
Sum of individual times     ....       3.377 sec  ( 94.0%)

Fock matrix formation       ....       3.033 sec  ( 84.4%)
  XC integration            ....       0.545 sec  ( 18.0% of F)
    Basis function eval.    ....       0.065 sec  ( 12.0% of XC)
    Density eval.           ....       0.095 sec  ( 17.4% of XC)
    XC-Functional eval.     ....       0.040 sec  (  7.4% of XC)
    XC-Potential eval.      ....       0.209 sec  ( 38.2% of XC)
Diagonalization             ....       0.037 sec  (  1.0%)
Density matrix formation    ....       0.011 sec  (  0.3%)
Population analysis         ....       0.005 sec  (  0.1%)
Initial guess               ....       0.100 sec  (  2.8%)
Orbital Transformation      ....       0.000 sec  (  0.0%)
Orbital Orthonormalization  ....       0.000 sec  (  0.0%)
DIIS solution               ....       0.014 sec  (  0.4%)
SOSCF solution              ....       0.013 sec  (  0.4%)
Grid generation             ....       0.163 sec  (  4.5%)


-------------------------------------------------------------------------------
                          DFT DISPERSION CORRECTION                            
                                                                               
                              DFTD3 V3.1  Rev 1                                
                          USING Becke-Johnson damping                          
-------------------------------------------------------------------------------
The TPSSH functional is recognized
Active option DFTDOPT                   ...         4   

molecular C6(AA) [au] = 738.582081 


            DFT-D V3
 parameters
 s6 scaling factor         :     1.0000 
 a1 scaling factor         :     0.4529 
 s8 scaling factor         :     2.2382 
 a2 scaling factor         :     4.6550 
 ad hoc parameters k1-k3   :    16.0000     1.3333    -4.0000 

 Edisp/kcal,au: -2.234582695975  -0.003561033817 
 E6   /kcal   :  -0.991880094 
 E8   /kcal   :  -1.242702602 
 % E8         :  55.612289688 

-------------------------   ----------------
Dispersion correction           -0.003561034
-------------------------   ----------------


-------------------------   --------------------
FINAL SINGLE POINT ENERGY      -220.630725415929
-------------------------   --------------------


                            ***************************************
                            *     ORCA property calculations      *
                            ***************************************

                                    ---------------------
                                    Active property flags
                                    ---------------------
   (+) Dipole Moment


------------------------------------------------------------------------------
                       ORCA ELECTRIC PROPERTIES CALCULATION
------------------------------------------------------------------------------

Dipole Moment Calculation                       ... on
Quadrupole Moment Calculation                   ... off
Polarizability Calculation                      ... off
GBWName                                         ... 138.gbw
Electron density file                           ... 138.scfp
The origin for moment calculation is the CENTER OF MASS  = ( 0.099325,  1.424424  0.377296)

-------------
DIPOLE MOMENT
-------------
                                X             Y             Z
Electronic contribution:      0.52190       6.95562      -0.85701
Nuclear contribution   :     -0.44551      -6.18803      -1.41111
                        -----------------------------------------
Total Dipole Moment    :      0.07638       0.76759      -2.26813
                        -----------------------------------------
Magnitude (a.u.)       :      2.39571
Magnitude (Debye)      :      6.08942



--------------------
Rotational spectrum 
--------------------
 
Rotational constants in cm-1:     0.993150     0.247328     0.211706 
Rotational constants in MHz : 29773.882147  7414.712908  6346.774487 

 Dipole components along the rotational axes: 
x,y,z [a.u.] :    -2.268125     0.767599    -0.076391 
x,y,z [Debye]:    -5.765117     1.951083    -0.194170 

 

Timings for individual modules:

Sum of individual times         ...        4.694 sec (=   0.078 min)
GTO integral calculation        ...        0.743 sec (=   0.012 min)  15.8 %
SCF iterations                  ...        3.951 sec (=   0.066 min)  84.2 %
                             ****ORCA TERMINATED NORMALLY****
TOTAL RUN TIME: 0 days 0 hours 0 minutes 5 seconds 167 msec
