
                                 *****************
                                 * O   R   C   A *
                                 *****************

           --- An Ab Initio, DFT and Semiempirical electronic structure package ---

                  #######################################################
                  #                        -***-                        #
                  #          Department of theory and spectroscopy      #
                  #               Directorship: Frank Neese             #
                  #        Max Planck Institute fuer Kohlenforschung    #
                  #                Kaiser Wilhelm Platz 1               #
                  #                 D-45470 Muelheim/Ruhr               #
                  #                      Germany                        #
                  #                                                     #
                  #                  All rights reserved                #
                  #                        -***-                        #
                  #######################################################


                         Program Version 4.2.0 -  RELEASE  -


 With contributions from (in alphabetic order):
   Daniel Aravena         : Magnetic Suceptibility
   Michael Atanasov       : Ab Initio Ligand Field Theory (pilot matlab implementation)
   Alexander A. Auer      : GIAO ZORA, VPT2
   Ute Becker             : Parallelization
   Giovanni Bistoni       : ED, misc. LED, open-shell LED, HFLED
   Martin Brehm           : Molecular dynamics
   Dmytro Bykov           : SCF Hessian
   Vijay G. Chilkuri      : MRCI spin determinant printing, contributions to CSF-ICE
   Dipayan Datta          : RHF DLPNO-CCSD density
   Achintya Kumar Dutta   : EOM-CC, STEOM-CC
   Dmitry Ganyushin       : Spin-Orbit,Spin-Spin,Magnetic field MRCI
   Miquel Garcia          : C-PCM Hessian, Gaussian charge scheme
   Yang Guo               : DLPNO-NEVPT2, CIM, IAO-localization
   Andreas Hansen         : Spin unrestricted coupled pair/coupled cluster methods
   Benjamin Helmich-Paris : CASSCF linear response (MC-RPA)
   Lee Huntington         : MR-EOM, pCC
   Robert Izsak           : Overlap fitted RIJCOSX, COSX-SCS-MP3, EOM
   Christian Kollmar      : KDIIS, OOCD, Brueckner-CCSD(T), CCSD density
   Simone Kossmann        : Meta GGA functionals, TD-DFT gradient, OOMP2, MP2 Hessian
   Martin Krupicka        : AUTO-CI
   Lucas Lang             : DCDCAS
   Dagmar Lenk            : GEPOL surface, SMD
   Dimitrios Liakos       : Extrapolation schemes; Compound Job, initial MDCI parallelization
   Dimitrios Manganas     : Further ROCIS development; embedding schemes
   Dimitrios Pantazis     : SARC Basis sets
   Taras Petrenko         : DFT Hessian,TD-DFT gradient, ASA, ECA, R-Raman, ABS, FL, XAS/XES, NRVS
   Peter Pinski           : DLPNO-MP2, DLPNO-MP2 Gradient
   Christoph Reimann      : Effective Core Potentials
   Marius Retegan         : Local ZFS, SOC
   Christoph Riplinger    : Optimizer, TS searches, QM/MM, DLPNO-CCSD(T), (RO)-DLPNO pert. Triples
   Tobias Risthaus        : Range-separated hybrids, TD-DFT gradient, RPA, STAB
   Michael Roemelt        : Original ROCIS implementation
   Masaaki Saitow         : Open-shell DLPNO-CCSD energy and density
   Barbara Sandhoefer     : DKH picture change effects
   Avijit Sen             : IP-ROCIS
   Kantharuban Sivalingam : CASSCF convergence, NEVPT2, FIC-MRCI
   Bernardo de Souza      : ESD, SOC TD-DFT
   Georgi Stoychev        : AutoAux, RI-MP2 NMR
   Willem Van den Heuvel  : Paramagnetic NMR
   Boris Wezisla          : Elementary symmetry handling
   Frank Wennmohs         : Technical directorship


 We gratefully acknowledge several colleagues who have allowed us to
 interface, adapt or use parts of their codes:
   Stefan Grimme, W. Hujo, H. Kruse,             : VdW corrections, initial TS optimization,
                  C. Bannwarth                     DFT functionals, gCP, sTDA/sTD-DF
   Ed Valeev, F. Pavosevic, A. Kumar             : LibInt (2-el integral package), F12 methods
   Garnet Chan, S. Sharma, J. Yang, R. Olivares  : DMRG
   Ulf Ekstrom                                   : XCFun DFT Library
   Mihaly Kallay                                 : mrcc  (arbitrary order and MRCC methods)
   Andreas Klamt, Michael Diedenhofen            : otool_cosmo (COSMO solvation model)
   Jiri Pittner, Ondrej Demel                    : Mk-CCSD
   Frank Weinhold                                : gennbo (NPA and NBO analysis)
   Christopher J. Cramer and Donald G. Truhlar   : smd solvation model
   Lars Goerigk                                  : TD-DFT with DH, B97 family of functionals
   V. Asgeirsson, H. Jonsson                     : NEB implementation
   FAccTs GmbH                                   : IRC, NEB, NEB-TS, Multilevel, MM, QM/MM, CI optimization
   S Lehtola, MJT Oliveira, MAL Marques          : LibXC Library


 Your calculation uses the libint2 library for the computation of 2-el integrals
 For citations please refer to: http://libint.valeyev.net

 Your ORCA version has been built with support for libXC version: 4.2.3
 For citations please refer to: https://tddft.org/programs/libxc/

 This ORCA versions uses:
   CBLAS   interface :  Fast vector & matrix operations
   LAPACKE interface :  Fast linear algebra routines
   SCALAPACK package :  Parallel linear algebra routines


Your calculation utilizes the atom-pairwise dispersion correction
with the Becke-Johnson damping scheme (D3BJ)
Cite in your paper:
S.Grimme, S.Ehrlich, L.Goerigk, J Comput Chem, (2011), 32, 1456–1465 
S.Grimme, J.Antony, S.Ehrlich and H.Krieg, J.Chem.Phys., 132, (2010), 154104 
   

----- Orbital basis set information -----
Your calculation utilizes the basis: def2-TZVPPD
   F. Weigend and R. Ahlrichs, Phys. Chem. Chem. Phys. 7, 3297 (2005).
   D. Rappoport and F. Furche, J. Chem. Phys. 133 134105 (2010).

----- AuxJK basis set information -----
Your calculation utilizes the auxiliary basis: def2/JK
   H-Ba, Hf-Rn: F. Weigend, J. Comput. Chem. 29, 167 (2008).

================================================================================
                                        WARNINGS
                       Please study these warnings very carefully!
================================================================================


INFO   : the flag for use of LIBINT has been found!

================================================================================
                                       INPUT FILE
================================================================================
NAME = 168_be.in
|  1> #
|  2> # 168_be TPSSh-D3BJ/Def2-TZVPPD
|  3> #
|  4> ! tpssh d3bj def2-tzvppd def2/jk grid4 nofinalgrid
|  5> 
|  6> *xyz 0 1
|  7> Be         0.00000        0.00000        0.00000
|  8> H          0.00000        0.00000       -1.34402
|  9> H          0.00000        0.00000        1.34402
| 10> *
| 11> 
| 12> %maxcore 5000
| 13> 
| 14> %pal
| 15> nprocs = 24
| 16> end
| 17> 
| 18> 
| 19>                          ****END OF INPUT****
================================================================================

                       ****************************
                       * Single Point Calculation *
                       ****************************

---------------------------------
CARTESIAN COORDINATES (ANGSTROEM)
---------------------------------
  Be     0.000000    0.000000    0.000000
  H      0.000000    0.000000   -1.344020
  H      0.000000    0.000000    1.344020

----------------------------
CARTESIAN COORDINATES (A.U.)
----------------------------
  NO LB      ZA    FRAG     MASS         X           Y           Z
   0 Be    4.0000    0     9.012    0.000000    0.000000    0.000000
   1 H     1.0000    0     1.008    0.000000    0.000000   -2.539830
   2 H     1.0000    0     1.008    0.000000    0.000000    2.539830

--------------------------------
INTERNAL COORDINATES (ANGSTROEM)
--------------------------------
 Be     0   0   0     0.000000000000     0.00000000     0.00000000
 H      1   0   0     1.344020000000     0.00000000     0.00000000
 H      1   2   0     1.344020000000   179.99999915     0.00000000

---------------------------
INTERNAL COORDINATES (A.U.)
---------------------------
 Be     0   0   0     0.000000000000     0.00000000     0.00000000
 H      1   0   0     2.539829718513     0.00000000     0.00000000
 H      1   2   0     2.539829718513   179.99999915     0.00000000

---------------------
BASIS SET INFORMATION
---------------------
There are 2 groups of distinct atoms

 Group   1 Type Be  : 11s5p1d contracted to 5s4p1d pattern {62111/1211/1}
 Group   2 Type H   : 5s3p1d contracted to 3s3p1d pattern {311/111/1}

Atom   0Be   basis set group =>   1
Atom   1H    basis set group =>   2
Atom   2H    basis set group =>   2
----------------------------------
AUXILIARY/JK BASIS SET INFORMATION
----------------------------------
There are 2 groups of distinct atoms

 Group   1 Type Be  : 10s7p4d2f contracted to 7s5p3d2f pattern {4111111/31111/211/11}
 Group   2 Type H   : 4s2p2d contracted to 2s2p2d pattern {31/11/11}

Atom   0Be   basis set group =>   1
Atom   1H    basis set group =>   2
Atom   2H    basis set group =>   2


           ************************************************************
           *        Program running with 24 parallel MPI-processes    *
           *              working on a common directory               *
           ************************************************************
------------------------------------------------------------------------------
                           ORCA GTO INTEGRAL CALCULATION
------------------------------------------------------------------------------

                         BASIS SET STATISTICS AND STARTUP INFO

 # of primitive gaussian shells          ...   35
 # of primitive gaussian functions       ...   69
 # of contracted shells                  ...   24
 # of contracted basis functions         ...   56
 Highest angular momentum                ...    2
 Maximum contraction depth               ...    6
 Integral package used                   ... LIBINT
 Integral threshhold            Thresh   ...  1.000e-10
 Primitive cut-off              TCut     ...  1.000e-11


------------------------------ INTEGRAL EVALUATION ----------------------------


 * One electron integrals 
 Pre-screening matrix                    ... done
 Shell pair data                         ... done (   0.000 sec)



           ************************************************************
           *        Program running with 24 parallel MPI-processes    *
           *              working on a common directory               *
           ************************************************************
-------------------------------------------------------------------------------
                                 ORCA SCF
-------------------------------------------------------------------------------

------------
SCF SETTINGS
------------
Hamiltonian:
 Density Functional     Method          .... DFT(GTOs)
 Exchange Functional    Exchange        .... TPSS
 Correlation Functional Correlation     .... TPSS
 LDA part of GGA corr.  LDAOpt          .... PW91-LDA
 Gradients option       PostSCFGGA      .... off
 Hybrid DFT is turned on
   Fraction HF Exchange ScalHFX         ....  0.100000
   Scaling of DF-GGA-X  ScalDFX         ....  0.900000
   Scaling of DF-GGA-C  ScalDFC         ....  1.000000
   Scaling of DF-LDA-C  ScalLDAC        ....  1.000000
   Perturbative correction              ....  0.000000
   Density functional embedding theory  .... OFF
   NL short-range parameter             ....  5.200000


General Settings:
 Integral files         IntName         .... 168_be
 Hartree-Fock type      HFTyp           .... RHF
 Total Charge           Charge          ....    0
 Multiplicity           Mult            ....    1
 Number of Electrons    NEL             ....    6
 Basis Dimension        Dim             ....   56
 Nuclear Repulsion      ENuc            ....      3.3466810543 Eh

Convergence Acceleration:
 DIIS                   CNVDIIS         .... on
   Start iteration      DIISMaxIt       ....    12
   Startup error        DIISStart       ....  0.200000
   # of expansion vecs  DIISMaxEq       ....     5
   Bias factor          DIISBfac        ....   1.050
   Max. coefficient     DIISMaxC        ....  10.000
 Newton-Raphson         CNVNR           .... off
 SOSCF                  CNVSOSCF        .... on
   Start iteration      SOSCFMaxIt      ....   150
   Startup grad/error   SOSCFStart      ....  0.003300
 Level Shifting         CNVShift        .... on
   Level shift para.    LevelShift      ....    0.2500
   Turn off err/grad.   ShiftErr        ....    0.0010
 Zerner damping         CNVZerner       .... off
 Static damping         CNVDamp         .... on
   Fraction old density DampFac         ....    0.7000
   Max. Damping (<1)    DampMax         ....    0.9800
   Min. Damping (>=0)   DampMin         ....    0.0000
   Turn off err/grad.   DampErr         ....    0.1000
 Fernandez-Rico         CNVRico         .... off

SCF Procedure:
 Maximum # iterations   MaxIter         ....   125
 SCF integral mode      SCFMode         .... Direct
   Integral package                     .... LIBINT
 Reset frequency        DirectResetFreq ....    20
 Integral Threshold     Thresh          ....  1.000e-10 Eh
 Primitive CutOff       TCut            ....  1.000e-11 Eh

Convergence Tolerance:
 Convergence Check Mode ConvCheckMode   .... Total+1el-Energy
 Convergence forced     ConvForced      .... 0
 Energy Change          TolE            ....  1.000e-06 Eh
 1-El. energy change                    ....  1.000e-03 Eh
 Orbital Gradient       TolG            ....  5.000e-05
 Orbital Rotation angle TolX            ....  5.000e-05
 DIIS Error             TolErr          ....  1.000e-06


Diagonalization of the overlap matrix:
Smallest eigenvalue                        ... 8.616e-04
Time for diagonalization                   ...    0.002 sec
Threshold for overlap eigenvalues          ... 1.000e-08
Number of eigenvalues below threshold      ... 0
Time for construction of square roots      ...    0.001 sec
Total time needed                          ...    0.003 sec

-------------------
DFT GRID GENERATION
-------------------

General Integration Accuracy     IntAcc      ...  4.670
Radial Grid Type                 RadialGrid  ... Gauss-Chebyshev
Angular Grid (max. acc.)         AngularGrid ... Lebedev-302
Angular grid pruning method      GridPruning ... 3 (G Style)
Weight generation scheme         WeightScheme... Becke
Basis function cutoff            BFCut       ...    1.0000e-10
Integration weight cutoff        WCut        ...    1.0000e-14
Grids for H and He will be reduced by one unit

# of grid points (after initial pruning)     ...  12748 (   0.0 sec)
# of grid points (after weights+screening)   ...  12636 (   0.0 sec)
nearest neighbour list constructed           ...    0.0 sec
Grid point re-assignment to atoms done       ...    0.0 sec
Grid point division into batches done        ...    0.0 sec
Reduced shell lists constructed in    0.0 sec

Total number of grid points                  ...    12636
Total number of batches                      ...      200
Average number of points per batch           ...       63
Average number of grid points per atom       ...     4212
Average number of shells per batch           ...    14.00 (58.33%)
Average number of basis functions per batch  ...    31.40 (56.07%)
Average number of large shells per batch     ...    11.70 (83.57%)
Average number of large basis fcns per batch ...    26.30 (83.76%)
Maximum spatial batch extension              ...  41.76, 31.89,  2.52 au
Average spatial batch extension              ...   0.78,  0.69,  0.11 au

Time for grid setup =    0.092 sec

------------------------------
INITIAL GUESS: MODEL POTENTIAL
------------------------------
Loading Hartree-Fock densities                     ... done
Calculating cut-offs                               ... done
Setting up the integral package                    ... done
Initializing the effective Hamiltonian             ... done
Starting the Coulomb interaction                   ... done (   0.0 sec)
Reading the grid                                   ... done
Mapping shells                                     ... done
Starting the XC term evaluation                    ... done (   0.0 sec)
  promolecular density results
     # of electrons  =      5.999014028
     EX              =     -3.229254533
     EC              =     -0.135965339
     EX+EC           =     -3.365219872
Transforming the Hamiltonian                       ... done (   0.0 sec)
Diagonalizing the Hamiltonian                      ... done (   0.0 sec)
Back transforming the eigenvectors                 ... done (   0.0 sec)
Now organizing SCF variables                       ... done
                      ------------------
                      INITIAL GUESS DONE (   0.2 sec)
                      ------------------
--------------
SCF ITERATIONS
--------------
ITER       Energy         Delta-E        Max-DP      RMS-DP      [F,P]     Damp
               ***  Starting incremental Fock matrix formation  ***
  0    -15.9061676115   0.000000000000 0.01868838  0.00114423  0.1047972 0.7000
  1    -15.9106160017  -0.004448390231 0.01760058  0.00100521  0.0746305 0.7000
                               ***Turning on DIIS***
  2    -15.9136595802  -0.003043578509 0.04111989  0.00237949  0.0489543 0.0000
  3    -15.9195619463  -0.005902366040 0.00910580  0.00041560  0.0101191 0.0000
                      *** Initiating the SOSCF procedure ***
                           *** Shutting down DIIS ***
                      *** Re-Reading the Fockian *** 
                      *** Removing any level shift *** 
ITER      Energy       Delta-E        Grad      Rot      Max-DP    RMS-DP
  4    -15.91971825  -0.0001563009  0.000871  0.000871  0.002897  0.000115
               *** Restarting incremental Fock matrix formation ***
  5    -15.91973037  -0.0000121233  0.000337  0.000930  0.001724  0.000079
  6    -15.91973192  -0.0000015471  0.000121  0.000104  0.000308  0.000014
                 **** Energy Check signals convergence ****
              ***Rediagonalizing the Fockian in SOSCF/NRSCF***

               *****************************************************
               *                     SUCCESS                       *
               *           SCF CONVERGED AFTER   7 CYCLES          *
               *****************************************************


----------------
TOTAL SCF ENERGY
----------------

Total Energy       :          -15.91973201 Eh            -433.19793 eV

Components:
Nuclear Repulsion  :            3.34668105 Eh              91.06782 eV
Electronic Energy  :          -19.26641307 Eh            -524.26575 eV
One Electron Energy:          -27.03469714 Eh            -735.65151 eV
Two Electron Energy:            7.76828408 Eh             211.38576 eV

Virial components:
Potential Energy   :          -31.69628200 Eh            -862.49968 eV
Kinetic Energy     :           15.77654999 Eh             429.30175 eV
Virial Ratio       :            2.00907562


DFT components:
N(Alpha)           :        2.999994907222 electrons
N(Beta)            :        2.999994907222 electrons
N(Total)           :        5.999989814445 electrons
E(X)               :       -3.110619745259 Eh       
E(C)               :       -0.137081552487 Eh       
E(XC)              :       -3.247701297745 Eh       
DFET-embed. en.    :        0.000000000000 Eh       

---------------
SCF CONVERGENCE
---------------

  Last Energy change         ...   -9.3299e-08  Tolerance :   1.0000e-06
  Last MAX-Density change    ...    4.1473e-05  Tolerance :   1.0000e-05
  Last RMS-Density change    ...    1.7109e-06  Tolerance :   1.0000e-06
  Last Orbital Gradient      ...    6.6138e-06  Tolerance :   5.0000e-05
  Last Orbital Rotation      ...    1.5045e-05  Tolerance :   5.0000e-05

             **** THE GBW FILE WAS UPDATED (168_be.gbw) ****
             **** DENSITY FILE WAS UPDATED (168_be.scfp) ****
             **** ENERGY FILE WAS UPDATED (168_be.en.tmp) ****
             **** THE GBW FILE WAS UPDATED (168_be.gbw) ****
             **** DENSITY FILE WAS UPDATED (168_be.scfp) ****
----------------
ORBITAL ENERGIES
----------------

  NO   OCC          E(Eh)            E(eV) 
   0   2.0000      -3.989504      -108.5599 
   1   2.0000      -0.337951        -9.1961 
   2   2.0000      -0.302529        -8.2322 
   3   0.0000      -0.041132        -1.1193 
   4   0.0000      -0.041132        -1.1193 
   5   0.0000       0.024857         0.6764 
   6   0.0000       0.035873         0.9761 
   7   0.0000       0.063341         1.7236 
   8   0.0000       0.063342         1.7236 
   9   0.0000       0.070657         1.9227 
  10   0.0000       0.148382         4.0377 
  11   0.0000       0.148382         4.0377 
  12   0.0000       0.188122         5.1191 
  13   0.0000       0.218462         5.9446 
  14   0.0000       0.243387         6.6229 
  15   0.0000       0.263138         7.1603 
  16   0.0000       0.263138         7.1603 
  17   0.0000       0.319629         8.6976 
  18   0.0000       0.319629         8.6976 
  19   0.0000       0.369390        10.0516 
  20   0.0000       0.376500        10.2451 
  21   0.0000       0.376500        10.2451 
  22   0.0000       0.512991        13.9592 
  23   0.0000       0.512991        13.9592 
  24   0.0000       0.533441        14.5157 
  25   0.0000       0.563112        15.3230 
  26   0.0000       0.651015        17.7150 
  27   0.0000       0.901566        24.5329 
  28   0.0000       0.961622        26.1671 
  29   0.0000       0.961622        26.1671 
  30   0.0000       1.096950        29.8495 
  31   0.0000       1.096950        29.8495 
  32   0.0000       1.280018        34.8311 
  33   0.0000       1.532599        41.7042 
  34   0.0000       2.965477        80.6947 
  35   0.0000       3.001627        81.6784 
  36   0.0000       3.268205        88.9324 
  37   0.0000       3.268208        88.9325 
  38   0.0000       3.339906        90.8835 
  39   0.0000       3.339910        90.8836 
  40   0.0000       3.391742        92.2940 
  41   0.0000       3.419089        93.0382 
  42   0.0000       3.419089        93.0382 
  43   0.0000       3.477222        94.6200 
  44   0.0000       3.477222        94.6200 
  45   0.0000       3.780904       102.8836 
  46   0.0000       4.055530       110.3566 
  47   0.0000       4.055530       110.3566 
  48   0.0000       4.129288       112.3636 
  49   0.0000       4.129288       112.3636 
  50   0.0000       4.353231       118.4574 
  51   0.0000       4.727362       128.6381 
  52   0.0000       5.237964       142.5323 
  53   0.0000       5.237964       142.5323 
  54   0.0000       6.423411       174.7899 
  55   0.0000       7.910900       215.2665 

                    ********************************
                    * MULLIKEN POPULATION ANALYSIS *
                    ********************************

-----------------------
MULLIKEN ATOMIC CHARGES
-----------------------
   0 Be:    0.186128
   1 H :   -0.093064
   2 H :   -0.093064
Sum of atomic charges:   -0.0000000

--------------------------------
MULLIKEN REDUCED ORBITAL CHARGES
--------------------------------
  0 Bes       :     2.818852  s :     2.818852
      pz      :     0.980176  p :     0.980176
      px      :     0.000000
      py      :     0.000000
      dz2     :     0.014844  d :     0.014844
      dxz     :    -0.000000
      dyz     :     0.000000
      dx2y2   :     0.000000
      dxy     :     0.000000
  1 H s       :     1.063652  s :     1.063652
      pz      :     0.028949  p :     0.028949
      px      :     0.000000
      py      :     0.000000
      dz2     :     0.000463  d :     0.000463
      dxz     :     0.000000
      dyz     :     0.000000
      dx2y2   :    -0.000000
      dxy     :     0.000000
  2 H s       :     1.063652  s :     1.063652
      pz      :     0.028949  p :     0.028949
      px      :     0.000000
      py      :     0.000000
      dz2     :     0.000463  d :     0.000463
      dxz     :     0.000000
      dyz     :    -0.000000
      dx2y2   :     0.000000
      dxy     :     0.000000


                     *******************************
                     * LOEWDIN POPULATION ANALYSIS *
                     *******************************

----------------------
LOEWDIN ATOMIC CHARGES
----------------------
   0 Be:    0.370338
   1 H :   -0.185169
   2 H :   -0.185169

-------------------------------
LOEWDIN REDUCED ORBITAL CHARGES
-------------------------------
  0 Bes       :     2.727559  s :     2.727559
      pz      :     0.831735  p :     0.831735
      px      :     0.000000
      py      :     0.000000
      dz2     :     0.070368  d :     0.070368
      dxz     :     0.000000
      dyz     :     0.000000
      dx2y2   :     0.000000
      dxy     :     0.000000
  1 H s       :     1.093122  s :     1.093122
      pz      :     0.089684  p :     0.089684
      px      :     0.000000
      py      :     0.000000
      dz2     :     0.002363  d :     0.002363
      dxz     :     0.000000
      dyz     :     0.000000
      dx2y2   :     0.000000
      dxy     :     0.000000
  2 H s       :     1.093122  s :     1.093122
      pz      :     0.089684  p :     0.089684
      px      :     0.000000
      py      :     0.000000
      dz2     :     0.002363  d :     0.002363
      dxz     :     0.000000
      dyz     :     0.000000
      dx2y2   :     0.000000
      dxy     :     0.000000


                      *****************************
                      * MAYER POPULATION ANALYSIS *
                      *****************************

  NA   - Mulliken gross atomic population
  ZA   - Total nuclear charge
  QA   - Mulliken gross atomic charge
  VA   - Mayer's total valence
  BVA  - Mayer's bonded valence
  FA   - Mayer's free valence

  ATOM       NA         ZA         QA         VA         BVA        FA
  0 Be     3.8139     4.0000     0.1861     1.9505     1.9505    -0.0000
  1 H      1.0931     1.0000    -0.0931     1.0911     1.0911    -0.0000
  2 H      1.0931     1.0000    -0.0931     1.0911     1.0911    -0.0000

  Mayer bond orders larger than 0.100000
B(  0-Be,  1-H ) :   0.9753 B(  0-Be,  2-H ) :   0.9753 B(  1-H ,  2-H ) :   0.1158 


-------
TIMINGS
-------

Total SCF time: 0 days 0 hours 0 min 1 sec 

Total time                  ....       1.128 sec
Sum of individual times     ....       0.932 sec  ( 82.7%)

Fock matrix formation       ....       0.696 sec  ( 61.7%)
  XC integration            ....       0.070 sec  ( 10.0% of F)
    Basis function eval.    ....       0.008 sec  ( 11.5% of XC)
    Density eval.           ....       0.008 sec  ( 11.4% of XC)
    XC-Functional eval.     ....       0.009 sec  ( 12.3% of XC)
    XC-Potential eval.      ....       0.010 sec  ( 14.7% of XC)
Diagonalization             ....       0.003 sec  (  0.2%)
Density matrix formation    ....       0.002 sec  (  0.1%)
Population analysis         ....       0.002 sec  (  0.2%)
Initial guess               ....       0.135 sec  ( 12.0%)
Orbital Transformation      ....       0.000 sec  (  0.0%)
Orbital Orthonormalization  ....       0.000 sec  (  0.0%)
DIIS solution               ....       0.001 sec  (  0.1%)
SOSCF solution              ....       0.002 sec  (  0.2%)
Grid generation             ....       0.092 sec  (  8.1%)


-------------------------------------------------------------------------------
                          DFT DISPERSION CORRECTION                            
                                                                               
                              DFTD3 V3.1  Rev 1                                
                          USING Becke-Johnson damping                          
-------------------------------------------------------------------------------
The TPSSH functional is recognized
Active option DFTDOPT                   ...         4   

molecular C6(AA) [au] = 120.263449 


            DFT-D V3
 parameters
 s6 scaling factor         :     1.0000 
 a1 scaling factor         :     0.4529 
 s8 scaling factor         :     2.2382 
 a2 scaling factor         :     4.6550 
 ad hoc parameters k1-k3   :    16.0000     1.3333    -4.0000 

 Edisp/kcal,au: -0.378832083045  -0.000603707288 
 E6   /kcal   :  -0.183588604 
 E8   /kcal   :  -0.195243479 
 % E8         :  51.538264049 

-------------------------   ----------------
Dispersion correction           -0.000603707
-------------------------   ----------------


-------------------------   --------------------
FINAL SINGLE POINT ENERGY       -15.920335718191
-------------------------   --------------------


                            ***************************************
                            *     ORCA property calculations      *
                            ***************************************

                                    ---------------------
                                    Active property flags
                                    ---------------------
   (+) Dipole Moment


------------------------------------------------------------------------------
                       ORCA ELECTRIC PROPERTIES CALCULATION
------------------------------------------------------------------------------

Dipole Moment Calculation                       ... on
Quadrupole Moment Calculation                   ... off
Polarizability Calculation                      ... off
GBWName                                         ... 168_be.gbw
Electron density file                           ... 168_be.scfp
The origin for moment calculation is the CENTER OF MASS  = ( 0.000000,  0.000000  0.000000)

-------------
DIPOLE MOMENT
-------------
                                X             Y             Z
Electronic contribution:      0.00000      -0.00000       0.00000
Nuclear contribution   :      0.00000       0.00000       0.00000
                        -----------------------------------------
Total Dipole Moment    :      0.00000      -0.00000       0.00000
                        -----------------------------------------
Magnitude (a.u.)       :      0.00000
Magnitude (Debye)      :      0.00000



--------------------
Rotational spectrum 
--------------------
 
Rotational constants in cm-1:     0.000000     4.629082     4.629082 
Rotational constants in MHz :     0.000000 138776.398767 138776.398767 

 Dipole components along the rotational axes: 
x,y,z [a.u.] :     0.000000    -0.000000     0.000000 
x,y,z [Debye]:     0.000000    -0.000000     0.000000 

 

Timings for individual modules:

Sum of individual times         ...        2.403 sec (=   0.040 min)
GTO integral calculation        ...        0.830 sec (=   0.014 min)  34.5 %
SCF iterations                  ...        1.574 sec (=   0.026 min)  65.5 %
                             ****ORCA TERMINATED NORMALLY****
TOTAL RUN TIME: 0 days 0 hours 0 minutes 3 seconds 0 msec
