
                                 *****************
                                 * O   R   C   A *
                                 *****************

           --- An Ab Initio, DFT and Semiempirical electronic structure package ---

                  #######################################################
                  #                        -***-                        #
                  #          Department of theory and spectroscopy      #
                  #               Directorship: Frank Neese             #
                  #        Max Planck Institute fuer Kohlenforschung    #
                  #                Kaiser Wilhelm Platz 1               #
                  #                 D-45470 Muelheim/Ruhr               #
                  #                      Germany                        #
                  #                                                     #
                  #                  All rights reserved                #
                  #                        -***-                        #
                  #######################################################


                         Program Version 4.2.0 -  RELEASE  -


 With contributions from (in alphabetic order):
   Daniel Aravena         : Magnetic Suceptibility
   Michael Atanasov       : Ab Initio Ligand Field Theory (pilot matlab implementation)
   Alexander A. Auer      : GIAO ZORA, VPT2
   Ute Becker             : Parallelization
   Giovanni Bistoni       : ED, misc. LED, open-shell LED, HFLED
   Martin Brehm           : Molecular dynamics
   Dmytro Bykov           : SCF Hessian
   Vijay G. Chilkuri      : MRCI spin determinant printing, contributions to CSF-ICE
   Dipayan Datta          : RHF DLPNO-CCSD density
   Achintya Kumar Dutta   : EOM-CC, STEOM-CC
   Dmitry Ganyushin       : Spin-Orbit,Spin-Spin,Magnetic field MRCI
   Miquel Garcia          : C-PCM Hessian, Gaussian charge scheme
   Yang Guo               : DLPNO-NEVPT2, CIM, IAO-localization
   Andreas Hansen         : Spin unrestricted coupled pair/coupled cluster methods
   Benjamin Helmich-Paris : CASSCF linear response (MC-RPA)
   Lee Huntington         : MR-EOM, pCC
   Robert Izsak           : Overlap fitted RIJCOSX, COSX-SCS-MP3, EOM
   Christian Kollmar      : KDIIS, OOCD, Brueckner-CCSD(T), CCSD density
   Simone Kossmann        : Meta GGA functionals, TD-DFT gradient, OOMP2, MP2 Hessian
   Martin Krupicka        : AUTO-CI
   Lucas Lang             : DCDCAS
   Dagmar Lenk            : GEPOL surface, SMD
   Dimitrios Liakos       : Extrapolation schemes; Compound Job, initial MDCI parallelization
   Dimitrios Manganas     : Further ROCIS development; embedding schemes
   Dimitrios Pantazis     : SARC Basis sets
   Taras Petrenko         : DFT Hessian,TD-DFT gradient, ASA, ECA, R-Raman, ABS, FL, XAS/XES, NRVS
   Peter Pinski           : DLPNO-MP2, DLPNO-MP2 Gradient
   Christoph Reimann      : Effective Core Potentials
   Marius Retegan         : Local ZFS, SOC
   Christoph Riplinger    : Optimizer, TS searches, QM/MM, DLPNO-CCSD(T), (RO)-DLPNO pert. Triples
   Tobias Risthaus        : Range-separated hybrids, TD-DFT gradient, RPA, STAB
   Michael Roemelt        : Original ROCIS implementation
   Masaaki Saitow         : Open-shell DLPNO-CCSD energy and density
   Barbara Sandhoefer     : DKH picture change effects
   Avijit Sen             : IP-ROCIS
   Kantharuban Sivalingam : CASSCF convergence, NEVPT2, FIC-MRCI
   Bernardo de Souza      : ESD, SOC TD-DFT
   Georgi Stoychev        : AutoAux, RI-MP2 NMR
   Willem Van den Heuvel  : Paramagnetic NMR
   Boris Wezisla          : Elementary symmetry handling
   Frank Wennmohs         : Technical directorship


 We gratefully acknowledge several colleagues who have allowed us to
 interface, adapt or use parts of their codes:
   Stefan Grimme, W. Hujo, H. Kruse,             : VdW corrections, initial TS optimization,
                  C. Bannwarth                     DFT functionals, gCP, sTDA/sTD-DF
   Ed Valeev, F. Pavosevic, A. Kumar             : LibInt (2-el integral package), F12 methods
   Garnet Chan, S. Sharma, J. Yang, R. Olivares  : DMRG
   Ulf Ekstrom                                   : XCFun DFT Library
   Mihaly Kallay                                 : mrcc  (arbitrary order and MRCC methods)
   Andreas Klamt, Michael Diedenhofen            : otool_cosmo (COSMO solvation model)
   Jiri Pittner, Ondrej Demel                    : Mk-CCSD
   Frank Weinhold                                : gennbo (NPA and NBO analysis)
   Christopher J. Cramer and Donald G. Truhlar   : smd solvation model
   Lars Goerigk                                  : TD-DFT with DH, B97 family of functionals
   V. Asgeirsson, H. Jonsson                     : NEB implementation
   FAccTs GmbH                                   : IRC, NEB, NEB-TS, Multilevel, MM, QM/MM, CI optimization
   S Lehtola, MJT Oliveira, MAL Marques          : LibXC Library


 Your calculation uses the libint2 library for the computation of 2-el integrals
 For citations please refer to: http://libint.valeyev.net

 Your ORCA version has been built with support for libXC version: 4.2.3
 For citations please refer to: https://tddft.org/programs/libxc/

 This ORCA versions uses:
   CBLAS   interface :  Fast vector & matrix operations
   LAPACKE interface :  Fast linear algebra routines
   SCALAPACK package :  Parallel linear algebra routines


Your calculation utilizes the atom-pairwise dispersion correction
with the Becke-Johnson damping scheme (D3BJ)
Cite in your paper:
S.Grimme, S.Ehrlich, L.Goerigk, J Comput Chem, (2011), 32, 1456–1465 
S.Grimme, J.Antony, S.Ehrlich and H.Krieg, J.Chem.Phys., 132, (2010), 154104 
   

----- Orbital basis set information -----
Your calculation utilizes the basis: def2-TZVPPD
   F. Weigend and R. Ahlrichs, Phys. Chem. Chem. Phys. 7, 3297 (2005).
   D. Rappoport and F. Furche, J. Chem. Phys. 133 134105 (2010).

----- AuxJK basis set information -----
Your calculation utilizes the auxiliary basis: def2/JK
   H-Ba, Hf-Rn: F. Weigend, J. Comput. Chem. 29, 167 (2008).

================================================================================
                                        WARNINGS
                       Please study these warnings very carefully!
================================================================================


WARNING: your system is open-shell and RHF/RKS was chosen
  ===> : WILL SWITCH to UHF/UKS


INFO   : the flag for use of LIBINT has been found!

================================================================================
                                       INPUT FILE
================================================================================
NAME = 179_s.in
|  1> #
|  2> # 179_s TPSSh-D3BJ/Def2-TZVPPD
|  3> #
|  4> ! tpssh d3bj def2-tzvppd def2/jk grid4 nofinalgrid
|  5> 
|  6> *xyz 0 3
|  7> S          0.00000        0.00000        0.96937
|  8> S          0.00000        0.00000       -0.96937
|  9> *
| 10> 
| 11> %maxcore 5000
| 12> 
| 13> %pal
| 14> nprocs = 24
| 15> end
| 16> 
| 17> 
| 18>                          ****END OF INPUT****
================================================================================

                       ****************************
                       * Single Point Calculation *
                       ****************************

---------------------------------
CARTESIAN COORDINATES (ANGSTROEM)
---------------------------------
  S      0.000000    0.000000    0.969370
  S      0.000000    0.000000   -0.969370

----------------------------
CARTESIAN COORDINATES (A.U.)
----------------------------
  NO LB      ZA    FRAG     MASS         X           Y           Z
   0 S    16.0000    0    32.060    0.000000    0.000000    1.831844
   1 S    16.0000    0    32.060    0.000000    0.000000   -1.831844

--------------------------------
INTERNAL COORDINATES (ANGSTROEM)
--------------------------------
 S      0   0   0     0.000000000000     0.00000000     0.00000000
 S      1   0   0     1.938740000000     0.00000000     0.00000000

---------------------------
INTERNAL COORDINATES (A.U.)
---------------------------
 S      0   0   0     0.000000000000     0.00000000     0.00000000
 S      1   0   0     3.663687644878     0.00000000     0.00000000

---------------------
BASIS SET INFORMATION
---------------------
There are 1 groups of distinct atoms

 Group   1 Type S   : 15s10p4d1f contracted to 6s6p4d1f pattern {732111/511111/1111/1}

Atom   0S    basis set group =>   1
Atom   1S    basis set group =>   1
----------------------------------
AUXILIARY/JK BASIS SET INFORMATION
----------------------------------
There are 1 groups of distinct atoms

 Group   1 Type S   : 16s12p10d4f1g contracted to 13s11p9d4f1g pattern {4111111111111/21111111111/211111111/1111/1}

Atom   0S    basis set group =>   1
Atom   1S    basis set group =>   1


           ************************************************************
           *        Program running with 24 parallel MPI-processes    *
           *              working on a common directory               *
           ************************************************************
------------------------------------------------------------------------------
                           ORCA GTO INTEGRAL CALCULATION
------------------------------------------------------------------------------

                         BASIS SET STATISTICS AND STARTUP INFO

 # of primitive gaussian shells          ...   60
 # of primitive gaussian functions       ...  144
 # of contracted shells                  ...   34
 # of contracted basis functions         ...  102
 Highest angular momentum                ...    3
 Maximum contraction depth               ...    7
 Integral package used                   ... LIBINT
 Integral threshhold            Thresh   ...  1.000e-10
 Primitive cut-off              TCut     ...  1.000e-11


------------------------------ INTEGRAL EVALUATION ----------------------------


 * One electron integrals 
 Pre-screening matrix                    ... done
 Shell pair data                         ... done (   0.000 sec)



           ************************************************************
           *        Program running with 24 parallel MPI-processes    *
           *              working on a common directory               *
           ************************************************************
-------------------------------------------------------------------------------
                                 ORCA SCF
-------------------------------------------------------------------------------

------------
SCF SETTINGS
------------
Hamiltonian:
 Density Functional     Method          .... DFT(GTOs)
 Exchange Functional    Exchange        .... TPSS
 Correlation Functional Correlation     .... TPSS
 LDA part of GGA corr.  LDAOpt          .... PW91-LDA
 Gradients option       PostSCFGGA      .... off
 Hybrid DFT is turned on
   Fraction HF Exchange ScalHFX         ....  0.100000
   Scaling of DF-GGA-X  ScalDFX         ....  0.900000
   Scaling of DF-GGA-C  ScalDFC         ....  1.000000
   Scaling of DF-LDA-C  ScalLDAC        ....  1.000000
   Perturbative correction              ....  0.000000
   Density functional embedding theory  .... OFF
   NL short-range parameter             ....  5.200000


General Settings:
 Integral files         IntName         .... 179_s
 Hartree-Fock type      HFTyp           .... UHF
 Total Charge           Charge          ....    0
 Multiplicity           Mult            ....    3
 Number of Electrons    NEL             ....   32
 Basis Dimension        Dim             ....  102
 Nuclear Repulsion      ENuc            ....     69.8749524561 Eh

Convergence Acceleration:
 DIIS                   CNVDIIS         .... on
   Start iteration      DIISMaxIt       ....    12
   Startup error        DIISStart       ....  0.200000
   # of expansion vecs  DIISMaxEq       ....     5
   Bias factor          DIISBfac        ....   1.050
   Max. coefficient     DIISMaxC        ....  10.000
 Newton-Raphson         CNVNR           .... off
 SOSCF                  CNVSOSCF        .... off
 Level Shifting         CNVShift        .... on
   Level shift para.    LevelShift      ....    0.2500
   Turn off err/grad.   ShiftErr        ....    0.0010
 Zerner damping         CNVZerner       .... off
 Static damping         CNVDamp         .... on
   Fraction old density DampFac         ....    0.7000
   Max. Damping (<1)    DampMax         ....    0.9800
   Min. Damping (>=0)   DampMin         ....    0.0000
   Turn off err/grad.   DampErr         ....    0.1000
 Fernandez-Rico         CNVRico         .... off

SCF Procedure:
 Maximum # iterations   MaxIter         ....   125
 SCF integral mode      SCFMode         .... Direct
   Integral package                     .... LIBINT
 Reset frequency        DirectResetFreq ....    20
 Integral Threshold     Thresh          ....  1.000e-10 Eh
 Primitive CutOff       TCut            ....  1.000e-11 Eh

Convergence Tolerance:
 Convergence Check Mode ConvCheckMode   .... Total+1el-Energy
 Convergence forced     ConvForced      .... 0
 Energy Change          TolE            ....  1.000e-06 Eh
 1-El. energy change                    ....  1.000e-03 Eh
 DIIS Error             TolErr          ....  1.000e-06


Diagonalization of the overlap matrix:
Smallest eigenvalue                        ... 8.216e-04
Time for diagonalization                   ...    0.004 sec
Threshold for overlap eigenvalues          ... 1.000e-08
Number of eigenvalues below threshold      ... 0
Time for construction of square roots      ...    0.002 sec
Total time needed                          ...    0.005 sec

-------------------
DFT GRID GENERATION
-------------------

General Integration Accuracy     IntAcc      ...  4.670
Radial Grid Type                 RadialGrid  ... Gauss-Chebyshev
Angular Grid (max. acc.)         AngularGrid ... Lebedev-302
Angular grid pruning method      GridPruning ... 3 (G Style)
Weight generation scheme         WeightScheme... Becke
Basis function cutoff            BFCut       ...    1.0000e-10
Integration weight cutoff        WCut        ...    1.0000e-14
Grids for H and He will be reduced by one unit

# of grid points (after initial pruning)     ...  13692 (   0.0 sec)
# of grid points (after weights+screening)   ...  13666 (   0.0 sec)
nearest neighbour list constructed           ...    0.0 sec
Grid point re-assignment to atoms done       ...    0.0 sec
Grid point division into batches done        ...    0.1 sec
Reduced shell lists constructed in    0.1 sec

Total number of grid points                  ...    13666
Total number of batches                      ...      214
Average number of points per batch           ...       63
Average number of grid points per atom       ...     6833
Average number of shells per batch           ...     8.20 (24.12%)
Average number of basis functions per batch  ...    22.00 (21.57%)
Average number of large shells per batch     ...     6.40 (78.05%)
Average number of large basis fcns per batch ...    19.20 (87.27%)
Maximum spatial batch extension              ...  19.50, 19.55, 12.87 au
Average spatial batch extension              ...   0.66,  0.66,  0.47 au

Time for grid setup =    0.122 sec

------------------------------
INITIAL GUESS: MODEL POTENTIAL
------------------------------
Loading Hartree-Fock densities                     ... done
Calculating cut-offs                               ... done
Setting up the integral package                    ... done
Initializing the effective Hamiltonian             ... done
Starting the Coulomb interaction                   ... done (   0.0 sec)
Reading the grid                                   ... done
Mapping shells                                     ... done
Starting the XC term evaluation                    ... done (   0.0 sec)
  promolecular density results
     # of electrons  =     32.000016304
     EX              =    -49.735268983
     EC              =     -1.225861746
     EX+EC           =    -50.961130729
Transforming the Hamiltonian                       ... done (   0.0 sec)
Diagonalizing the Hamiltonian                      ... done (   0.0 sec)
Back transforming the eigenvectors                 ... done (   0.0 sec)
Now organizing SCF variables                       ... done
                      ------------------
                      INITIAL GUESS DONE (   0.2 sec)
                      ------------------
--------------
SCF ITERATIONS
--------------
ITER       Energy         Delta-E        Max-DP      RMS-DP      [F,P]     Damp
               ***  Starting incremental Fock matrix formation  ***
  0   -796.4228836014   0.000000000000 0.01223951  0.00024559  0.0457716 0.7000
  1   -796.4252561719  -0.002372570575 0.00971740  0.00019378  0.0320975 0.7000
                               ***Turning on DIIS***
  2   -796.4266967958  -0.001440623871 0.02107888  0.00042337  0.0224879 0.0000
  3   -796.4297657191  -0.003068923315 0.00432083  0.00010178  0.0083019 0.0000
  4   -796.4300987297  -0.000333010616 0.00129289  0.00003724  0.0020291 0.0000
  5   -796.4301352607  -0.000036531009 0.00112861  0.00002723  0.0003346 0.0000
  6   -796.4301461525  -0.000010891725 0.00028895  0.00000692  0.0000465 0.0000
                 **** Energy Check signals convergence ****

               *****************************************************
               *                     SUCCESS                       *
               *           SCF CONVERGED AFTER   7 CYCLES          *
               *****************************************************


----------------
TOTAL SCF ENERGY
----------------

Total Energy       :         -796.43014681 Eh          -21671.96608 eV

Components:
Nuclear Repulsion  :           69.87495246 Eh            1901.39412 eV
Electronic Energy  :         -866.30509927 Eh          -23573.36020 eV
One Electron Energy:        -1238.63772600 Eh          -33705.04606 eV
Two Electron Energy:          372.33262673 Eh           10131.68586 eV

Virial components:
Potential Energy   :        -1591.32142425 Eh          -43302.05739 eV
Kinetic Energy     :          794.89127744 Eh           21630.09131 eV
Virial Ratio       :            2.00193595


DFT components:
N(Alpha)           :       17.000005902273 electrons
N(Beta)            :       15.000005883823 electrons
N(Total)           :       32.000011786096 electrons
E(X)               :      -45.139676799872 Eh       
E(C)               :       -1.230324074947 Eh       
E(XC)              :      -46.370000874819 Eh       
DFET-embed. en.    :        0.000000000000 Eh       

---------------
SCF CONVERGENCE
---------------

  Last Energy change         ...   -6.5858e-07  Tolerance :   1.0000e-06
  Last MAX-Density change    ...    4.3231e-05  Tolerance :   1.0000e-05
  Last RMS-Density change    ...    1.0338e-06  Tolerance :   1.0000e-06
  Last DIIS Error            ...    1.2811e-05  Tolerance :   1.0000e-06

             **** THE GBW FILE WAS UPDATED (179_s.gbw) ****
             **** DENSITY FILE WAS UPDATED (179_s.scfp) ****
             **** ENERGY FILE WAS UPDATED (179_s.en.tmp) ****
----------------------
UHF SPIN CONTAMINATION
----------------------

Warning: in a DFT calculation there is little theoretical justification to 
         calculate <S**2> as in Hartree-Fock theory. We will do it anyways
         but you should keep in mind that the values have only limited relevance

Expectation value of <S**2>     :     2.009511
Ideal value S*(S+1) for S=1.0   :     2.000000
Deviation                       :     0.009511

             **** THE GBW FILE WAS UPDATED (179_s.gbw) ****
             **** DENSITY FILE WAS UPDATED (179_s.scfp) ****
----------------
ORBITAL ENERGIES
----------------
                 SPIN UP ORBITALS
  NO   OCC          E(Eh)            E(eV) 
   0   1.0000     -88.772650     -2415.6266 
   1   1.0000     -88.772639     -2415.6263 
   2   1.0000      -7.915747      -215.3984 
   3   1.0000      -7.915644      -215.3956 
   4   1.0000      -5.863790      -159.5618 
   5   1.0000      -5.863790      -159.5618 
   6   1.0000      -5.863751      -159.5608 
   7   1.0000      -5.863751      -159.5608 
   8   1.0000      -5.863651      -159.5581 
   9   1.0000      -5.863058      -159.5419 
  10   1.0000      -0.807769       -21.9805 
  11   1.0000      -0.622044       -16.9267 
  12   1.0000      -0.387058       -10.5324 
  13   1.0000      -0.362986        -9.8774 
  14   1.0000      -0.362986        -9.8774 
  15   1.0000      -0.242281        -6.5928 
  16   1.0000      -0.242281        -6.5928 
  17   0.0000      -0.040610        -1.1051 
  18   0.0000       0.022821         0.6210 
  19   0.0000       0.034979         0.9518 
  20   0.0000       0.034979         0.9518 
  21   0.0000       0.037033         1.0077 
  22   0.0000       0.047245         1.2856 
  23   0.0000       0.064802         1.7634 
  24   0.0000       0.064802         1.7634 
  25   0.0000       0.091136         2.4799 
  26   0.0000       0.091137         2.4800 
  27   0.0000       0.136213         3.7066 
  28   0.0000       0.136213         3.7066 
  29   0.0000       0.155314         4.2263 
  30   0.0000       0.188409         5.1269 
  31   0.0000       0.188412         5.1270 
  32   0.0000       0.191770         5.2183 
  33   0.0000       0.240943         6.5564 
  34   0.0000       0.245363         6.6767 
  35   0.0000       0.245363         6.6767 
  36   0.0000       0.343537         9.3481 
  37   0.0000       0.343537         9.3481 
  38   0.0000       0.375699        10.2233 
  39   0.0000       0.392191        10.6721 
  40   0.0000       0.392191        10.6721 
  41   0.0000       0.404191        10.9986 
  42   0.0000       0.404200        10.9988 
  43   0.0000       0.475657        12.9433 
  44   0.0000       0.475663        12.9434 
  45   0.0000       0.508627        13.8404 
  46   0.0000       0.508627        13.8405 
  47   0.0000       0.533419        14.5151 
  48   0.0000       0.538644        14.6572 
  49   0.0000       0.599634        16.3169 
  50   0.0000       0.599634        16.3169 
  51   0.0000       0.688942        18.7471 
  52   0.0000       0.718980        19.5644 
  53   0.0000       1.105774        30.0897 
  54   0.0000       1.412805        38.4444 
  55   0.0000       1.412809        38.4445 
  56   0.0000       1.440401        39.1953 
  57   0.0000       1.469001        39.9735 
  58   0.0000       1.469001        39.9735 
  59   0.0000       1.531130        41.6642 
  60   0.0000       1.531171        41.6653 
  61   0.0000       1.554646        42.3041 
  62   0.0000       1.554693        42.3053 
  63   0.0000       1.562490        42.5175 
  64   0.0000       1.562490        42.5175 
  65   0.0000       1.564823        42.5810 
  66   0.0000       1.564823        42.5810 
  67   0.0000       1.598275        43.4913 
  68   0.0000       1.636518        44.5319 
  69   0.0000       1.636518        44.5319 
  70   0.0000       1.651738        44.9461 
  71   0.0000       1.651738        44.9461 
  72   0.0000       1.835406        49.9439 
  73   0.0000       1.835406        49.9439 
  74   0.0000       1.838837        50.0373 
  75   0.0000       1.889918        51.4273 
  76   0.0000       1.889935        51.4277 
  77   0.0000       1.930163        52.5224 
  78   0.0000       1.930163        52.5224 
  79   0.0000       1.980400        53.8894 
  80   0.0000       2.407468        65.5105 
  81   0.0000       2.482095        67.5412 
  82   0.0000       2.482095        67.5412 
  83   0.0000       3.058183        83.2174 
  84   0.0000       6.658016       181.1738 
  85   0.0000       6.658032       181.1743 
  86   0.0000       6.688193       181.9950 
  87   0.0000       6.688208       181.9954 
  88   0.0000       6.694018       182.1535 
  89   0.0000       6.694018       182.1535 
  90   0.0000       6.708174       182.5387 
  91   0.0000       6.708174       182.5387 
  92   0.0000       6.720298       182.8686 
  93   0.0000       6.898907       187.7288 
  94   0.0000       8.791121       239.2186 
  95   0.0000       8.791121       239.2186 
  96   0.0000       8.920022       242.7261 
  97   0.0000       8.920022       242.7261 
  98   0.0000       9.074593       246.9322 
  99   0.0000       9.199256       250.3245 
 100   0.0000      18.262642       496.9517 
 101   0.0000      18.912214       514.6275 

                 SPIN DOWN ORBITALS
  NO   OCC          E(Eh)            E(eV) 
   0   1.0000     -88.766203     -2415.4512 
   1   1.0000     -88.766193     -2415.4509 
   2   1.0000      -7.910271      -215.2494 
   3   1.0000      -7.910151      -215.2462 
   4   1.0000      -5.860591      -159.4748 
   5   1.0000      -5.859990      -159.4584 
   6   1.0000      -5.852591      -159.2571 
   7   1.0000      -5.852591      -159.2571 
   8   1.0000      -5.852547      -159.2559 
   9   1.0000      -5.852547      -159.2559 
  10   1.0000      -0.780208       -21.2305 
  11   1.0000      -0.566938       -15.4272 
  12   1.0000      -0.366278        -9.9669 
  13   1.0000      -0.315888        -8.5957 
  14   1.0000      -0.315888        -8.5957 
  15   0.0000      -0.155385        -4.2282 
  16   0.0000      -0.155385        -4.2282 
  17   0.0000      -0.024293        -0.6611 
  18   0.0000       0.030902         0.8409 
  19   0.0000       0.040964         1.1147 
  20   0.0000       0.040964         1.1147 
  21   0.0000       0.044700         1.2163 
  22   0.0000       0.052298         1.4231 
  23   0.0000       0.073451         1.9987 
  24   0.0000       0.073451         1.9987 
  25   0.0000       0.109295         2.9741 
  26   0.0000       0.109296         2.9741 
  27   0.0000       0.153934         4.1888 
  28   0.0000       0.153934         4.1888 
  29   0.0000       0.164055         4.4642 
  30   0.0000       0.202219         5.5027 
  31   0.0000       0.210600         5.7307 
  32   0.0000       0.210600         5.7307 
  33   0.0000       0.249289         6.7835 
  34   0.0000       0.257496         7.0068 
  35   0.0000       0.257496         7.0068 
  36   0.0000       0.354967         9.6591 
  37   0.0000       0.354967         9.6591 
  38   0.0000       0.384820        10.4715 
  39   0.0000       0.414853        11.2887 
  40   0.0000       0.414853        11.2887 
  41   0.0000       0.438306        11.9269 
  42   0.0000       0.438307        11.9270 
  43   0.0000       0.521343        14.1865 
  44   0.0000       0.521343        14.1865 
  45   0.0000       0.530701        14.4411 
  46   0.0000       0.530701        14.4411 
  47   0.0000       0.544758        14.8236 
  48   0.0000       0.550292        14.9742 
  49   0.0000       0.628365        17.0987 
  50   0.0000       0.628365        17.0987 
  51   0.0000       0.712856        19.3978 
  52   0.0000       0.740414        20.1477 
  53   0.0000       1.126753        30.6605 
  54   0.0000       1.445514        39.3344 
  55   0.0000       1.445523        39.3347 
  56   0.0000       1.458870        39.6979 
  57   0.0000       1.491520        40.5863 
  58   0.0000       1.491520        40.5863 
  59   0.0000       1.562879        42.5281 
  60   0.0000       1.562916        42.5291 
  61   0.0000       1.586022        43.1578 
  62   0.0000       1.586022        43.1578 
  63   0.0000       1.588475        43.2246 
  64   0.0000       1.588515        43.2257 
  65   0.0000       1.612799        43.8865 
  66   0.0000       1.612799        43.8865 
  67   0.0000       1.613062        43.8937 
  68   0.0000       1.658745        45.1368 
  69   0.0000       1.658745        45.1368 
  70   0.0000       1.702427        46.3254 
  71   0.0000       1.702427        46.3254 
  72   0.0000       1.854944        50.4756 
  73   0.0000       1.865182        50.7542 
  74   0.0000       1.865182        50.7542 
  75   0.0000       1.927707        52.4556 
  76   0.0000       1.927728        52.4562 
  77   0.0000       1.958664        53.2980 
  78   0.0000       1.958664        53.2980 
  79   0.0000       2.002578        54.4929 
  80   0.0000       2.426065        66.0166 
  81   0.0000       2.513089        68.3846 
  82   0.0000       2.513089        68.3846 
  83   0.0000       3.083252        83.8996 
  84   0.0000       6.673837       181.6043 
  85   0.0000       6.673861       181.6050 
  86   0.0000       6.704060       182.4267 
  87   0.0000       6.704060       182.4267 
  88   0.0000       6.704385       182.4356 
  89   0.0000       6.704410       182.4363 
  90   0.0000       6.718293       182.8141 
  91   0.0000       6.718293       182.8141 
  92   0.0000       6.729235       183.1118 
  93   0.0000       6.908781       187.9975 
  94   0.0000       8.812262       239.7938 
  95   0.0000       8.812262       239.7938 
  96   0.0000       8.941622       243.3139 
  97   0.0000       8.941622       243.3139 
  98   0.0000       9.086117       247.2458 
  99   0.0000       9.210871       250.6405 
 100   0.0000      18.275971       497.3144 
 101   0.0000      18.926293       515.0106 

                    ********************************
                    * MULLIKEN POPULATION ANALYSIS *
                    ********************************

--------------------------------------------
MULLIKEN ATOMIC CHARGES AND SPIN POPULATIONS
--------------------------------------------
   0 S :   -0.000000    0.999999
   1 S :    0.000000    1.000001
Sum of atomic charges         :   -0.0000000
Sum of atomic spin populations:    2.0000000

-----------------------------------------------------
MULLIKEN REDUCED ORBITAL CHARGES AND SPIN POPULATIONS
-----------------------------------------------------
CHARGE
  0 S s       :     5.955496  s :     5.955496
      pz      :     3.014355  p :     9.924876
      px      :     3.455260
      py      :     3.455260
      dz2     :     0.026711  d :     0.109200
      dxz     :     0.041245
      dyz     :     0.041245
      dx2y2   :     0.000000
      dxy     :     0.000000
      f0      :     0.003438  f :     0.010428
      f+1     :     0.003495
      f-1     :     0.003495
      f+2     :     0.000000
      f-2     :     0.000000
      f+3     :     0.000000
      f-3     :     0.000000
  1 S s       :     5.955496  s :     5.955496
      pz      :     3.014355  p :     9.924876
      px      :     3.455260
      py      :     3.455260
      dz2     :     0.026711  d :     0.109200
      dxz     :     0.041245
      dyz     :     0.041245
      dx2y2   :     0.000000
      dxy     :     0.000000
      f0      :     0.003438  f :     0.010428
      f+1     :     0.003495
      f-1     :     0.003495
      f+2     :     0.000000
      f-2     :     0.000000
      f+3     :     0.000000
      f-3     :     0.000000

SPIN
  0 S s       :     0.003770  s :     0.003770
      pz      :    -0.003105  p :     0.995866
      px      :     0.499486
      py      :     0.499486
      dz2     :     0.000053  d :     0.001937
      dxz     :     0.000942
      dyz     :     0.000942
      dx2y2   :     0.000000
      dxy     :    -0.000000
      f0      :    -0.000719  f :    -0.001574
      f+1     :    -0.000427
      f-1     :    -0.000427
      f+2     :    -0.000000
      f-2     :    -0.000000
      f+3     :     0.000000
      f-3     :     0.000000
  1 S s       :     0.003772  s :     0.003772
      pz      :    -0.003105  p :     0.995866
      px      :     0.499486
      py      :     0.499486
      dz2     :     0.000053  d :     0.001937
      dxz     :     0.000942
      dyz     :     0.000942
      dx2y2   :    -0.000000
      dxy     :     0.000000
      f0      :    -0.000719  f :    -0.001574
      f+1     :    -0.000427
      f-1     :    -0.000427
      f+2     :    -0.000000
      f-2     :     0.000000
      f+3     :     0.000000
      f-3     :     0.000000


                     *******************************
                     * LOEWDIN POPULATION ANALYSIS *
                     *******************************

-------------------------------------------
LOEWDIN ATOMIC CHARGES AND SPIN POPULATIONS
-------------------------------------------
   0 S :   -0.000000    1.000000
   1 S :    0.000000    1.000000

----------------------------------------------------
LOEWDIN REDUCED ORBITAL CHARGES AND SPIN POPULATIONS
----------------------------------------------------
CHARGE
  0 S s       :     5.569742  s :     5.569742
      pz      :     3.220210  p :     9.947157
      px      :     3.363474
      py      :     3.363474
      dz2     :     0.197260  d :     0.452903
      dxz     :     0.127822
      dyz     :     0.127822
      dx2y2   :     0.000000
      dxy     :     0.000000
      f0      :     0.012789  f :     0.030198
      f+1     :     0.008705
      f-1     :     0.008705
      f+2     :     0.000000
      f-2     :     0.000000
      f+3     :     0.000000
      f-3     :     0.000000
  1 S s       :     5.569742  s :     5.569742
      pz      :     3.220210  p :     9.947157
      px      :     3.363474
      py      :     3.363474
      dz2     :     0.197260  d :     0.452903
      dxz     :     0.127822
      dyz     :     0.127822
      dx2y2   :     0.000000
      dxy     :     0.000000
      f0      :     0.012789  f :     0.030198
      f+1     :     0.008705
      f-1     :     0.008705
      f+2     :     0.000000
      f-2     :     0.000000
      f+3     :     0.000000
      f-3     :     0.000000

SPIN
  0 S s       :     0.006118  s :     0.006118
      pz      :    -0.008511  p :     0.872255
      px      :     0.440383
      py      :     0.440383
      dz2     :     0.003124  d :     0.117401
      dxz     :     0.057139
      dyz     :     0.057139
      dx2y2   :     0.000000
      dxy     :    -0.000000
      f0      :    -0.000731  f :     0.004225
      f+1     :     0.002478
      f-1     :     0.002478
      f+2     :    -0.000000
      f-2     :    -0.000000
      f+3     :     0.000000
      f-3     :     0.000000
  1 S s       :     0.006118  s :     0.006118
      pz      :    -0.008511  p :     0.872255
      px      :     0.440383
      py      :     0.440383
      dz2     :     0.003124  d :     0.117401
      dxz     :     0.057139
      dyz     :     0.057139
      dx2y2   :    -0.000000
      dxy     :     0.000000
      f0      :    -0.000731  f :     0.004225
      f+1     :     0.002478
      f-1     :     0.002478
      f+2     :    -0.000000
      f-2     :     0.000000
      f+3     :     0.000000
      f-3     :     0.000000


                      *****************************
                      * MAYER POPULATION ANALYSIS *
                      *****************************

  NA   - Mulliken gross atomic population
  ZA   - Total nuclear charge
  QA   - Mulliken gross atomic charge
  VA   - Mayer's total valence
  BVA  - Mayer's bonded valence
  FA   - Mayer's free valence

  ATOM       NA         ZA         QA         VA         BVA        FA
  0 S     16.0000    16.0000    -0.0000     2.4765     1.9135     0.5630
  1 S     16.0000    16.0000     0.0000     2.4765     1.9135     0.5630

  Mayer bond orders larger than 0.100000
B(  0-S ,  1-S ) :   1.9135 

-------
TIMINGS
-------

Total SCF time: 0 days 0 hours 0 min 1 sec 

Total time                  ....       1.412 sec
Sum of individual times     ....       1.223 sec  ( 86.6%)

Fock matrix formation       ....       0.980 sec  ( 69.4%)
  XC integration            ....       0.142 sec  ( 14.5% of F)
    Basis function eval.    ....       0.008 sec  (  5.9% of XC)
    Density eval.           ....       0.019 sec  ( 13.3% of XC)
    XC-Functional eval.     ....       0.008 sec  (  6.0% of XC)
    XC-Potential eval.      ....       0.047 sec  ( 33.2% of XC)
Diagonalization             ....       0.021 sec  (  1.5%)
Density matrix formation    ....       0.004 sec  (  0.3%)
Population analysis         ....       0.005 sec  (  0.3%)
Initial guess               ....       0.084 sec  (  6.0%)
Orbital Transformation      ....       0.000 sec  (  0.0%)
Orbital Orthonormalization  ....       0.000 sec  (  0.0%)
DIIS solution               ....       0.007 sec  (  0.5%)
Grid generation             ....       0.122 sec  (  8.6%)


-------------------------------------------------------------------------------
                          DFT DISPERSION CORRECTION                            
                                                                               
                              DFTD3 V3.1  Rev 1                                
                          USING Becke-Johnson damping                          
-------------------------------------------------------------------------------
The TPSSH functional is recognized
Active option DFTDOPT                   ...         4   

molecular C6(AA) [au] = 523.805276 


            DFT-D V3
 parameters
 s6 scaling factor         :     1.0000 
 a1 scaling factor         :     0.4529 
 s8 scaling factor         :     2.2382 
 a2 scaling factor         :     4.6550 
 ad hoc parameters k1-k3   :    16.0000     1.3333    -4.0000 

 Edisp/kcal,au: -0.993750257965  -0.001583641671 
 E6   /kcal   :  -0.354215892 
 E8   /kcal   :  -0.639534366 
 % E8         :  64.355642761 

-------------------------   ----------------
Dispersion correction           -0.001583642
-------------------------   ----------------


-------------------------   --------------------
FINAL SINGLE POINT ENERGY      -796.431730452715
-------------------------   --------------------


                            ***************************************
                            *     ORCA property calculations      *
                            ***************************************

                                    ---------------------
                                    Active property flags
                                    ---------------------
   (+) Dipole Moment


------------------------------------------------------------------------------
                       ORCA ELECTRIC PROPERTIES CALCULATION
------------------------------------------------------------------------------

Dipole Moment Calculation                       ... on
Quadrupole Moment Calculation                   ... off
Polarizability Calculation                      ... off
GBWName                                         ... 179_s.gbw
Electron density file                           ... 179_s.scfp
The origin for moment calculation is the CENTER OF MASS  = ( 0.000000,  0.000000  0.000000)

-------------
DIPOLE MOMENT
-------------
                                X             Y             Z
Electronic contribution:     -0.00000       0.00000       0.00000
Nuclear contribution   :      0.00000       0.00000       0.00000
                        -----------------------------------------
Total Dipole Moment    :     -0.00000       0.00000       0.00000
                        -----------------------------------------
Magnitude (a.u.)       :      0.00000
Magnitude (Debye)      :      0.00000



--------------------
Rotational spectrum 
--------------------
 
Rotational constants in cm-1:     0.000000     0.279785     0.279785 
Rotational constants in MHz :     0.000000  8387.739618  8387.739618 

 Dipole components along the rotational axes: 
x,y,z [a.u.] :     0.000000     0.000000    -0.000000 
x,y,z [Debye]:     0.000000     0.000000    -0.000000 

 

Timings for individual modules:

Sum of individual times         ...        2.465 sec (=   0.041 min)
GTO integral calculation        ...        0.656 sec (=   0.011 min)  26.6 %
SCF iterations                  ...        1.808 sec (=   0.030 min)  73.4 %
                             ****ORCA TERMINATED NORMALLY****
TOTAL RUN TIME: 0 days 0 hours 0 minutes 2 seconds 985 msec
