
                                 *****************
                                 * O   R   C   A *
                                 *****************

           --- An Ab Initio, DFT and Semiempirical electronic structure package ---

                  #######################################################
                  #                        -***-                        #
                  #          Department of theory and spectroscopy      #
                  #               Directorship: Frank Neese             #
                  #        Max Planck Institute fuer Kohlenforschung    #
                  #                Kaiser Wilhelm Platz 1               #
                  #                 D-45470 Muelheim/Ruhr               #
                  #                      Germany                        #
                  #                                                     #
                  #                  All rights reserved                #
                  #                        -***-                        #
                  #######################################################


                         Program Version 4.2.0 -  RELEASE  -


 With contributions from (in alphabetic order):
   Daniel Aravena         : Magnetic Suceptibility
   Michael Atanasov       : Ab Initio Ligand Field Theory (pilot matlab implementation)
   Alexander A. Auer      : GIAO ZORA, VPT2
   Ute Becker             : Parallelization
   Giovanni Bistoni       : ED, misc. LED, open-shell LED, HFLED
   Martin Brehm           : Molecular dynamics
   Dmytro Bykov           : SCF Hessian
   Vijay G. Chilkuri      : MRCI spin determinant printing, contributions to CSF-ICE
   Dipayan Datta          : RHF DLPNO-CCSD density
   Achintya Kumar Dutta   : EOM-CC, STEOM-CC
   Dmitry Ganyushin       : Spin-Orbit,Spin-Spin,Magnetic field MRCI
   Miquel Garcia          : C-PCM Hessian, Gaussian charge scheme
   Yang Guo               : DLPNO-NEVPT2, CIM, IAO-localization
   Andreas Hansen         : Spin unrestricted coupled pair/coupled cluster methods
   Benjamin Helmich-Paris : CASSCF linear response (MC-RPA)
   Lee Huntington         : MR-EOM, pCC
   Robert Izsak           : Overlap fitted RIJCOSX, COSX-SCS-MP3, EOM
   Christian Kollmar      : KDIIS, OOCD, Brueckner-CCSD(T), CCSD density
   Simone Kossmann        : Meta GGA functionals, TD-DFT gradient, OOMP2, MP2 Hessian
   Martin Krupicka        : AUTO-CI
   Lucas Lang             : DCDCAS
   Dagmar Lenk            : GEPOL surface, SMD
   Dimitrios Liakos       : Extrapolation schemes; Compound Job, initial MDCI parallelization
   Dimitrios Manganas     : Further ROCIS development; embedding schemes
   Dimitrios Pantazis     : SARC Basis sets
   Taras Petrenko         : DFT Hessian,TD-DFT gradient, ASA, ECA, R-Raman, ABS, FL, XAS/XES, NRVS
   Peter Pinski           : DLPNO-MP2, DLPNO-MP2 Gradient
   Christoph Reimann      : Effective Core Potentials
   Marius Retegan         : Local ZFS, SOC
   Christoph Riplinger    : Optimizer, TS searches, QM/MM, DLPNO-CCSD(T), (RO)-DLPNO pert. Triples
   Tobias Risthaus        : Range-separated hybrids, TD-DFT gradient, RPA, STAB
   Michael Roemelt        : Original ROCIS implementation
   Masaaki Saitow         : Open-shell DLPNO-CCSD energy and density
   Barbara Sandhoefer     : DKH picture change effects
   Avijit Sen             : IP-ROCIS
   Kantharuban Sivalingam : CASSCF convergence, NEVPT2, FIC-MRCI
   Bernardo de Souza      : ESD, SOC TD-DFT
   Georgi Stoychev        : AutoAux, RI-MP2 NMR
   Willem Van den Heuvel  : Paramagnetic NMR
   Boris Wezisla          : Elementary symmetry handling
   Frank Wennmohs         : Technical directorship


 We gratefully acknowledge several colleagues who have allowed us to
 interface, adapt or use parts of their codes:
   Stefan Grimme, W. Hujo, H. Kruse,             : VdW corrections, initial TS optimization,
                  C. Bannwarth                     DFT functionals, gCP, sTDA/sTD-DF
   Ed Valeev, F. Pavosevic, A. Kumar             : LibInt (2-el integral package), F12 methods
   Garnet Chan, S. Sharma, J. Yang, R. Olivares  : DMRG
   Ulf Ekstrom                                   : XCFun DFT Library
   Mihaly Kallay                                 : mrcc  (arbitrary order and MRCC methods)
   Andreas Klamt, Michael Diedenhofen            : otool_cosmo (COSMO solvation model)
   Jiri Pittner, Ondrej Demel                    : Mk-CCSD
   Frank Weinhold                                : gennbo (NPA and NBO analysis)
   Christopher J. Cramer and Donald G. Truhlar   : smd solvation model
   Lars Goerigk                                  : TD-DFT with DH, B97 family of functionals
   V. Asgeirsson, H. Jonsson                     : NEB implementation
   FAccTs GmbH                                   : IRC, NEB, NEB-TS, Multilevel, MM, QM/MM, CI optimization
   S Lehtola, MJT Oliveira, MAL Marques          : LibXC Library


 Your calculation uses the libint2 library for the computation of 2-el integrals
 For citations please refer to: http://libint.valeyev.net

 Your ORCA version has been built with support for libXC version: 4.2.3
 For citations please refer to: https://tddft.org/programs/libxc/

 This ORCA versions uses:
   CBLAS   interface :  Fast vector & matrix operations
   LAPACKE interface :  Fast linear algebra routines
   SCALAPACK package :  Parallel linear algebra routines


Your calculation utilizes the DFT-NL dispersion correction.
Cite in your paper:
Vydrov, O. A.; Van Voorhis, T. J. Chem. Phys. 2010, 133, 244103
Hujo, W.; Grimme, S. J. Chem. Theory Comput. 2011, 7, 3866 
   

----- Orbital basis set information -----
Your calculation utilizes the basis: def2-TZVPPD
   F. Weigend and R. Ahlrichs, Phys. Chem. Chem. Phys. 7, 3297 (2005).
   D. Rappoport and F. Furche, J. Chem. Phys. 133 134105 (2010).

----- AuxJK basis set information -----
Your calculation utilizes the auxiliary basis: def2/JK
   H-Ba, Hf-Rn: F. Weigend, J. Comput. Chem. 29, 167 (2008).

================================================================================
                                        WARNINGS
                       Please study these warnings very carefully!
================================================================================


WARNING: your system is open-shell and RHF/RKS was chosen
  ===> : WILL SWITCH to UHF/UKS


INFO   : the flag for use of LIBINT has been found!

================================================================================
                                       INPUT FILE
================================================================================
NAME = 111.in
|  1> #
|  2> # 111 wB97X-V/Def2-TZVPPD
|  3> #
|  4> ! wb97x-v def2-tzvppd def2/jk grid4 nofinalgrid
|  5> 
|  6> *xyz 0 2
|  7> N          0.85218        0.06581        1.54293
|  8> C         -0.45432        0.04016        1.51127
|  9> H          0.51389       -1.04630       -1.15231
| 10> H         -1.27128       -0.21181        2.19239
| 11> H          0.93075        0.61434       -1.62997
| 12> C          0.02563        0.43731        0.29642
| 13> C          0.17679        0.00817       -1.10677
| 14> H         -0.77364        0.09232       -1.65395
| 15> *
| 16> 
| 17> %maxcore 5000
| 18> 
| 19> %pal
| 20> nprocs = 24
| 21> end
| 22> 
| 23> 
| 24>                          ****END OF INPUT****
================================================================================

                       ****************************
                       * Single Point Calculation *
                       ****************************

---------------------------------
CARTESIAN COORDINATES (ANGSTROEM)
---------------------------------
  N      0.852180    0.065810    1.542930
  C     -0.454320    0.040160    1.511270
  H      0.513890   -1.046300   -1.152310
  H     -1.271280   -0.211810    2.192390
  H      0.930750    0.614340   -1.629970
  C      0.025630    0.437310    0.296420
  C      0.176790    0.008170   -1.106770
  H     -0.773640    0.092320   -1.653950

----------------------------
CARTESIAN COORDINATES (A.U.)
----------------------------
  NO LB      ZA    FRAG     MASS         X           Y           Z
   0 N     7.0000    0    14.007    1.610387    0.124363    2.915715
   1 C     6.0000    0    12.011   -0.858540    0.075891    2.855886
   2 H     1.0000    0     1.008    0.971111   -1.977220   -2.177550
   3 H     1.0000    0     1.008   -2.402371   -0.400263    4.143017
   4 H     1.0000    0     1.008    1.758863    1.160934   -3.080197
   5 C     6.0000    0    12.011    0.048434    0.826396    0.560153
   6 C     6.0000    0    12.011    0.334085    0.015439   -2.091492
   7 H     1.0000    0     1.008   -1.461968    0.174460   -3.125513

--------------------------------
INTERNAL COORDINATES (ANGSTROEM)
--------------------------------
 N      0   0   0     0.000000000000     0.00000000     0.00000000
 C      1   0   0     1.307135237112     0.00000000     0.00000000
 H      1   2   0     2.935225278203    81.67017624     0.00000000
 H      2   1   3     1.093085987880   137.43041478   139.02903699
 H      3   1   2     1.777542276516    82.28499110   103.37290660
 C      2   1   3     1.365262116775    70.39527927   320.08891276
 C      5   3   1     1.099834528691    36.53469412   295.81076797
 H      7   5   3     1.099911069041   108.27253573   243.24977301

---------------------------
INTERNAL COORDINATES (A.U.)
---------------------------
 N      0   0   0     0.000000000000     0.00000000     0.00000000
 C      1   0   0     2.470127618140     0.00000000     0.00000000
 H      1   2   0     5.546771917166    81.67017624     0.00000000
 H      2   1   3     2.065633157920   137.43041478   139.02903699
 H      3   1   2     3.359068094081    82.28499110   103.37290660
 C      2   1   3     2.579971501722    70.39527927   320.08891276
 C      5   3   1     2.078386051856    36.53469412   295.81076797
 H      7   5   3     2.078530692157   108.27253573   243.24977301

---------------------
BASIS SET INFORMATION
---------------------
There are 3 groups of distinct atoms

 Group   1 Type N   : 12s6p3d1f contracted to 6s3p3d1f pattern {621111/411/111/1}
 Group   2 Type C   : 12s6p3d1f contracted to 6s3p3d1f pattern {621111/411/111/1}
 Group   3 Type H   : 5s3p1d contracted to 3s3p1d pattern {311/111/1}

Atom   0N    basis set group =>   1
Atom   1C    basis set group =>   2
Atom   2H    basis set group =>   3
Atom   3H    basis set group =>   3
Atom   4H    basis set group =>   3
Atom   5C    basis set group =>   2
Atom   6C    basis set group =>   2
Atom   7H    basis set group =>   3
----------------------------------
AUXILIARY/JK BASIS SET INFORMATION
----------------------------------
There are 3 groups of distinct atoms

 Group   1 Type N   : 14s10p6d2f1g contracted to 10s8p4d2f1g pattern {5111111111/31111111/3111/11/1}
 Group   2 Type C   : 14s10p6d2f1g contracted to 10s8p5d1f1g pattern {5111111111/31111111/21111/2/1}
 Group   3 Type H   : 4s2p2d contracted to 2s2p2d pattern {31/11/11}

Atom   0N    basis set group =>   1
Atom   1C    basis set group =>   2
Atom   2H    basis set group =>   3
Atom   3H    basis set group =>   3
Atom   4H    basis set group =>   3
Atom   5C    basis set group =>   2
Atom   6C    basis set group =>   2
Atom   7H    basis set group =>   3


           ************************************************************
           *        Program running with 24 parallel MPI-processes    *
           *              working on a common directory               *
           ************************************************************
------------------------------------------------------------------------------
                           ORCA GTO INTEGRAL CALCULATION
------------------------------------------------------------------------------

                         BASIS SET STATISTICS AND STARTUP INFO

 # of primitive gaussian shells          ...  124
 # of primitive gaussian functions       ...  284
 # of contracted shells                  ...   80
 # of contracted basis functions         ...  216
 Highest angular momentum                ...    3
 Maximum contraction depth               ...    6
 Integral package used                   ... LIBINT
 Integral threshhold            Thresh   ...  1.000e-10
 Primitive cut-off              TCut     ...  1.000e-11


------------------------------ INTEGRAL EVALUATION ----------------------------


 * One electron integrals 
 Pre-screening matrix                    ... done
 Shell pair data                         ... done (   0.001 sec)



           ************************************************************
           *        Program running with 24 parallel MPI-processes    *
           *              working on a common directory               *
           ************************************************************
-------------------------------------------------------------------------------
                                 ORCA SCF
-------------------------------------------------------------------------------

------------
SCF SETTINGS
------------
Hamiltonian:
 Density Functional     Method          .... DFT(GTOs)
 Exchange Functional    Exchange        .... WB97X-V
 Correlation Functional Correlation     .... WB97X-V
 Gradients option       PostSCFGGA      .... off
 Hybrid DFT is turned on
   Fraction HF Exchange ScalHFX         ....  0.167000
   Scaling of DF-GGA-X  ScalDFX         ....  0.000000
   Scaling of DF-GGA-C  ScalDFC         ....  1.000000
   Scaling of DF-LDA-C  ScalLDAC        ....  1.000000
   Perturbative correction              ....  0.000000
   Density functional embedding theory  .... OFF
 Long-range corrected/Screened/Range-Separated Hybrid DFT is turned on
   Amount of maximum screened exact exchange              ....  0.833000
   Range separation parameter mu (erf(mu*r12)/r12)        ....  0.300000
   NL short-range parameter             ....  6.000000
   NL long-range parameter              ....  0.010000


General Settings:
 Integral files         IntName         .... 111
 Hartree-Fock type      HFTyp           .... UHF
 Total Charge           Charge          ....    0
 Multiplicity           Mult            ....    2
 Number of Electrons    NEL             ....   29
 Basis Dimension        Dim             ....  216
 Nuclear Repulsion      ENuc            ....    101.0465732234 Eh

Convergence Acceleration:
 DIIS                   CNVDIIS         .... on
   Start iteration      DIISMaxIt       ....    12
   Startup error        DIISStart       ....  0.200000
   # of expansion vecs  DIISMaxEq       ....     5
   Bias factor          DIISBfac        ....   1.050
   Max. coefficient     DIISMaxC        ....  10.000
 Newton-Raphson         CNVNR           .... off
 SOSCF                  CNVSOSCF        .... off
 Level Shifting         CNVShift        .... on
   Level shift para.    LevelShift      ....    0.2500
   Turn off err/grad.   ShiftErr        ....    0.0010
 Zerner damping         CNVZerner       .... off
 Static damping         CNVDamp         .... on
   Fraction old density DampFac         ....    0.7000
   Max. Damping (<1)    DampMax         ....    0.9800
   Min. Damping (>=0)   DampMin         ....    0.0000
   Turn off err/grad.   DampErr         ....    0.1000
 Fernandez-Rico         CNVRico         .... off

SCF Procedure:
 Maximum # iterations   MaxIter         ....   125
 SCF integral mode      SCFMode         .... Direct
   Integral package                     .... LIBINT
 Reset frequency        DirectResetFreq ....    20
 Integral Threshold     Thresh          ....  1.000e-10 Eh
 Primitive CutOff       TCut            ....  1.000e-11 Eh

Convergence Tolerance:
 Convergence Check Mode ConvCheckMode   .... Total+1el-Energy
 Convergence forced     ConvForced      .... 0
 Energy Change          TolE            ....  1.000e-06 Eh
 1-El. energy change                    ....  1.000e-03 Eh
 DIIS Error             TolErr          ....  1.000e-06


Diagonalization of the overlap matrix:
Smallest eigenvalue                        ... 4.466e-06
Time for diagonalization                   ...    0.010 sec
Threshold for overlap eigenvalues          ... 1.000e-08
Number of eigenvalues below threshold      ... 0
Time for construction of square roots      ...    0.006 sec
Total time needed                          ...    0.017 sec

-------------------
DFT GRID GENERATION
-------------------

General Integration Accuracy     IntAcc      ...  4.670
Radial Grid Type                 RadialGrid  ... Gauss-Chebyshev
Angular Grid (max. acc.)         AngularGrid ... Lebedev-302
Angular grid pruning method      GridPruning ... 3 (G Style)
Weight generation scheme         WeightScheme... Becke
Basis function cutoff            BFCut       ...    1.0000e-10
Integration weight cutoff        WCut        ...    1.0000e-14
Grids for H and He will be reduced by one unit

# of grid points (after initial pruning)     ...  38424 (   0.0 sec)
# of grid points (after weights+screening)   ...  36730 (   0.0 sec)
nearest neighbour list constructed           ...    0.0 sec
Grid point re-assignment to atoms done       ...    0.0 sec
Grid point division into batches done        ...    0.1 sec
Reduced shell lists constructed in    0.1 sec

Total number of grid points                  ...    36730
Total number of batches                      ...      577
Average number of points per batch           ...       63
Average number of grid points per atom       ...     4591
Average number of shells per batch           ...    30.42 (38.03%)
Average number of basis functions per batch  ...    78.88 (36.52%)
Average number of large shells per batch     ...    22.92 (75.35%)
Average number of large basis fcns per batch ...    58.38 (74.01%)
Maximum spatial batch extension              ...  14.42, 17.08, 15.01 au
Average spatial batch extension              ...   0.32,  0.40,  0.33 au

Time for grid setup =    0.202 sec

------------------------------
INITIAL GUESS: MODEL POTENTIAL
------------------------------
Loading Hartree-Fock densities                     ... done
Calculating cut-offs                               ... done
Setting up the integral package                    ... done
Initializing the effective Hamiltonian             ... done
Starting the Coulomb interaction                   ... done (   0.0 sec)
Reading the grid                                   ... done
Mapping shells                                     ... done
Starting the XC term evaluation                    ... done (   0.0 sec)
  promolecular density results
     # of electrons  =     28.998033466
     EX              =    -15.426572762
     EC              =     -1.164290221
     EX+EC           =    -16.590862983
Transforming the Hamiltonian                       ... done (   0.0 sec)
Diagonalizing the Hamiltonian                      ... done (   0.0 sec)
Back transforming the eigenvectors                 ... done (   0.0 sec)
Now organizing SCF variables                       ... done
                      ------------------
                      INITIAL GUESS DONE (   0.3 sec)
                      ------------------
--------------
SCF ITERATIONS
--------------
ITER       Energy         Delta-E        Max-DP      RMS-DP      [F,P]     Damp
               ***  Starting incremental Fock matrix formation  ***
  0   -171.4161134878   0.000000000000 0.09284999  0.00101595  0.3038201 0.7000
  1   -171.4275173027  -0.011403814853 0.07608783  0.00088063  0.2082966 0.7000
                               ***Turning on DIIS***
  2   -171.4352565253  -0.007739222646 0.05659276  0.00069717  0.1421730 0.7000
  3   -171.4407187900  -0.005462264655 0.13960365  0.00189639  0.0969711 0.0000
  4   -171.4551615932  -0.014442803291 0.02982094  0.00035104  0.0034391 0.0000
  5   -171.4558851973  -0.000723604025 0.01812690  0.00023415  0.0024570 0.0000
  6   -171.4562873975  -0.000402200200 0.01349772  0.00015077  0.0021389 0.0000
  7   -171.4564852763  -0.000197878856 0.01056905  0.00010418  0.0010921 0.0000
  8   -171.4565868515  -0.000101575140 0.01135242  0.00010910  0.0006204 0.0000
  9   -171.4566332629  -0.000046411467 0.00269538  0.00002991  0.0005055 0.0000
 10   -171.4566388727  -0.000005609809 0.00189737  0.00001676  0.0002071 0.0000
 11   -171.4566405171  -0.000001644348 0.00160720  0.00001442  0.0001542 0.0000
                 **** Energy Check signals convergence ****

               *****************************************************
               *                     SUCCESS                       *
               *           SCF CONVERGED AFTER  12 CYCLES          *
               *****************************************************


Setting up the DFT-NL grid :

General Integration Accuracy     IntAcc      ...  4.340
Radial Grid Type                 RadialGrid  ... Gauss-Chebyshev
Angular Grid (max. acc.)         AngularGrid ... Lebedev-110
Angular grid pruning method      GridPruning ... 3 (G Style)
Weight generation scheme         WeightScheme... Becke
Basis function cutoff            BFCut       ...    1.0000e-10
Integration weight cutoff        WCut        ...    1.0000e-14
Grids for H and He will be reduced by one unit

# of grid points (after initial pruning)     ...   9846 (   0.0 sec)
# of grid points (after weights+screening)   ...   9502 (   0.0 sec)
nearest neighbour list constructed           ...    0.0 sec
Grid point re-assignment to atoms done       ...    0.0 sec
Grid point division into batches done        ...    0.0 sec
Reduced shell lists constructed in    0.0 sec

Total number of grid points                  ...     9502
Total number of batches                      ...      153
Average number of points per batch           ...       62
Average number of grid points per atom       ...     1188
Average number of shells per batch           ...    39.25 (49.06%)
Average number of basis functions per batch  ...   104.50 (48.38%)
Average number of large shells per batch     ...    29.38 (74.84%)
Average number of large basis fcns per batch ...    76.88 (73.56%)
Maximum spatial batch extension              ...  14.12, 22.57, 19.65 au
Average spatial batch extension              ...   0.44,  0.62,  0.56 au

Final grid set up in    0.0 sec

-------------------------------------------------------------------------------
                         DFT-NL dispersion correction                          
-------------------------------------------------------------------------------

SC Energy -171.456641350 
NL    Energy 0.115121576 
SC+NL Energy -171.341519774 
NL done in    0.0 sec
-------------------------------------------------------------------------------

----------------
TOTAL SCF ENERGY
----------------

Total Energy       :         -171.34151977 Eh           -4662.43979 eV

Components:
Nuclear Repulsion  :          101.04657322 Eh            2749.61705 eV
Electronic Energy  :         -272.38809300 Eh           -7412.05683 eV
One Electron Energy:         -429.68801520 Eh          -11692.40532 eV
Two Electron Energy:          157.29992220 Eh            4280.34849 eV

Virial components:
Potential Energy   :         -341.90124200 Eh           -9303.60578 eV
Kinetic Energy     :          170.55972223 Eh            4641.16599 eV
Virial Ratio       :            2.00458372


DFT components:
N(Alpha)           :       15.000006176485 electrons
N(Beta)            :       14.000003360028 electrons
N(Total)           :       29.000009536513 electrons
E(X)               :      -15.786016283362 Eh       
E(C)               :       -1.170660910958 Eh       
NL Energy, E(C,NL) :        0.115121575871 Eh       
E(XC)              :      -16.841555618449 Eh       
DFET-embed. en.    :        0.000000000000 Eh       

---------------
SCF CONVERGENCE
---------------

  Last Energy change         ...   -8.3275e-07  Tolerance :   1.0000e-06
  Last MAX-Density change    ...    3.9644e-04  Tolerance :   1.0000e-05
  Last RMS-Density change    ...    5.8274e-06  Tolerance :   1.0000e-06
  Last DIIS Error            ...    8.2400e-05  Tolerance :   1.0000e-06

             **** THE GBW FILE WAS UPDATED (111.gbw) ****
             **** DENSITY FILE WAS UPDATED (111.scfp) ****
             **** ENERGY FILE WAS UPDATED (111.en.tmp) ****
----------------------
UHF SPIN CONTAMINATION
----------------------

Warning: in a DFT calculation there is little theoretical justification to 
         calculate <S**2> as in Hartree-Fock theory. We will do it anyways
         but you should keep in mind that the values have only limited relevance

Expectation value of <S**2>     :     0.778131
Ideal value S*(S+1) for S=0.5   :     0.750000
Deviation                       :     0.028131

             **** THE GBW FILE WAS UPDATED (111.gbw) ****
             **** DENSITY FILE WAS UPDATED (111.scfp) ****
----------------
ORBITAL ENERGIES
----------------
                 SPIN UP ORBITALS
  NO   OCC          E(Eh)            E(eV) 
   0   1.0000     -14.438221      -392.8840 
   1   1.0000     -10.348279      -281.5910 
   2   1.0000     -10.325231      -280.9638 
   3   1.0000     -10.290774      -280.0262 
   4   1.0000      -1.130291       -30.7568 
   5   1.0000      -0.886462       -24.1219 
   6   1.0000      -0.729061       -19.8388 
   7   1.0000      -0.702677       -19.1208 
   8   1.0000      -0.580643       -15.8001 
   9   1.0000      -0.565259       -15.3815 
  10   1.0000      -0.539241       -14.6735 
  11   1.0000      -0.500320       -13.6144 
  12   1.0000      -0.465927       -12.6785 
  13   1.0000      -0.391981       -10.6663 
  14   1.0000      -0.283992        -7.7278 
  15   0.0000       0.044918         1.2223 
  16   0.0000       0.066010         1.7962 
  17   0.0000       0.081072         2.2061 
  18   0.0000       0.101227         2.7545 
  19   0.0000       0.122281         3.3274 
  20   0.0000       0.139114         3.7855 
  21   0.0000       0.143769         3.9121 
  22   0.0000       0.171437         4.6651 
  23   0.0000       0.181406         4.9363 
  24   0.0000       0.184942         5.0325 
  25   0.0000       0.203341         5.5332 
  26   0.0000       0.213572         5.8116 
  27   0.0000       0.233326         6.3491 
  28   0.0000       0.242312         6.5936 
  29   0.0000       0.251413         6.8413 
  30   0.0000       0.267846         7.2884 
  31   0.0000       0.285072         7.7572 
  32   0.0000       0.292548         7.9606 
  33   0.0000       0.296030         8.0554 
  34   0.0000       0.311238         8.4692 
  35   0.0000       0.320007         8.7078 
  36   0.0000       0.330101         8.9825 
  37   0.0000       0.334328         9.0975 
  38   0.0000       0.342143         9.3102 
  39   0.0000       0.348787         9.4910 
  40   0.0000       0.357192         9.7197 
  41   0.0000       0.361555         9.8384 
  42   0.0000       0.371184        10.1004 
  43   0.0000       0.376159        10.2358 
  44   0.0000       0.395533        10.7630 
  45   0.0000       0.399762        10.8781 
  46   0.0000       0.418530        11.3888 
  47   0.0000       0.435578        11.8527 
  48   0.0000       0.439413        11.9570 
  49   0.0000       0.461896        12.5688 
  50   0.0000       0.464810        12.6481 
  51   0.0000       0.470542        12.8041 
  52   0.0000       0.487175        13.2567 
  53   0.0000       0.510769        13.8987 
  54   0.0000       0.522565        14.2197 
  55   0.0000       0.531423        14.4607 
  56   0.0000       0.550343        14.9756 
  57   0.0000       0.572958        15.5910 
  58   0.0000       0.588592        16.0164 
  59   0.0000       0.615507        16.7488 
  60   0.0000       0.628797        17.1104 
  61   0.0000       0.644206        17.5297 
  62   0.0000       0.651942        17.7402 
  63   0.0000       0.671719        18.2784 
  64   0.0000       0.684842        18.6355 
  65   0.0000       0.699093        19.0233 
  66   0.0000       0.716288        19.4912 
  67   0.0000       0.726539        19.7701 
  68   0.0000       0.738661        20.1000 
  69   0.0000       0.755561        20.5599 
  70   0.0000       0.762173        20.7398 
  71   0.0000       0.772325        21.0160 
  72   0.0000       0.785358        21.3707 
  73   0.0000       0.798416        21.7260 
  74   0.0000       0.815103        22.1801 
  75   0.0000       0.835311        22.7300 
  76   0.0000       0.855101        23.2685 
  77   0.0000       0.864290        23.5185 
  78   0.0000       0.909532        24.7496 
  79   0.0000       0.935639        25.4600 
  80   0.0000       0.942304        25.6414 
  81   0.0000       0.967634        26.3307 
  82   0.0000       1.006149        27.3787 
  83   0.0000       1.040974        28.3263 
  84   0.0000       1.071891        29.1676 
  85   0.0000       1.109778        30.1986 
  86   0.0000       1.122167        30.5357 
  87   0.0000       1.162592        31.6357 
  88   0.0000       1.194765        32.5112 
  89   0.0000       1.234832        33.6015 
  90   0.0000       1.267973        34.5033 
  91   0.0000       1.287232        35.0274 
  92   0.0000       1.315874        35.8067 
  93   0.0000       1.335305        36.3355 
  94   0.0000       1.365862        37.1670 
  95   0.0000       1.424203        38.7545 
  96   0.0000       1.431706        38.9587 
  97   0.0000       1.437264        39.1099 
  98   0.0000       1.543290        41.9951 
  99   0.0000       1.551295        42.2129 
 100   0.0000       1.605127        43.6777 
 101   0.0000       1.614654        43.9370 
 102   0.0000       1.654669        45.0258 
 103   0.0000       1.667232        45.3677 
 104   0.0000       1.687983        45.9324 
 105   0.0000       1.705367        46.4054 
 106   0.0000       1.718460        46.7617 
 107   0.0000       1.725408        46.9507 
 108   0.0000       1.743507        47.4432 
 109   0.0000       1.789443        48.6932 
 110   0.0000       1.811895        49.3042 
 111   0.0000       1.863015        50.6952 
 112   0.0000       1.894901        51.5629 
 113   0.0000       1.925717        52.4014 
 114   0.0000       1.968926        53.5772 
 115   0.0000       1.982973        53.9594 
 116   0.0000       2.088959        56.8435 
 117   0.0000       2.167094        58.9696 
 118   0.0000       2.204408        59.9850 
 119   0.0000       2.279594        62.0309 
 120   0.0000       2.340413        63.6859 
 121   0.0000       2.436416        66.2983 
 122   0.0000       2.485447        67.6325 
 123   0.0000       2.527193        68.7684 
 124   0.0000       2.609283        71.0022 
 125   0.0000       2.618135        71.2431 
 126   0.0000       2.690342        73.2079 
 127   0.0000       2.741109        74.5894 
 128   0.0000       2.766250        75.2735 
 129   0.0000       2.787494        75.8516 
 130   0.0000       2.847877        77.4947 
 131   0.0000       2.866372        77.9979 
 132   0.0000       2.878345        78.3238 
 133   0.0000       2.929155        79.7064 
 134   0.0000       2.940796        80.0231 
 135   0.0000       2.961243        80.5795 
 136   0.0000       3.028177        82.4009 
 137   0.0000       3.045415        82.8699 
 138   0.0000       3.067120        83.4606 
 139   0.0000       3.084216        83.9258 
 140   0.0000       3.130343        85.1810 
 141   0.0000       3.159687        85.9794 
 142   0.0000       3.183060        86.6155 
 143   0.0000       3.206008        87.2399 
 144   0.0000       3.227362        87.8210 
 145   0.0000       3.243630        88.2637 
 146   0.0000       3.261459        88.7488 
 147   0.0000       3.309742        90.0627 
 148   0.0000       3.345004        91.0222 
 149   0.0000       3.365383        91.5767 
 150   0.0000       3.396374        92.4200 
 151   0.0000       3.412137        92.8490 
 152   0.0000       3.432534        93.4040 
 153   0.0000       3.456541        94.0573 
 154   0.0000       3.501002        95.2671 
 155   0.0000       3.532156        96.1149 
 156   0.0000       3.571283        97.1795 
 157   0.0000       3.614255        98.3489 
 158   0.0000       3.641242        99.0832 
 159   0.0000       3.695807       100.5680 
 160   0.0000       3.726031       101.3904 
 161   0.0000       3.766676       102.4965 
 162   0.0000       3.803098       103.4875 
 163   0.0000       3.851107       104.7939 
 164   0.0000       3.881285       105.6151 
 165   0.0000       3.905763       106.2812 
 166   0.0000       3.975753       108.1857 
 167   0.0000       4.025235       109.5322 
 168   0.0000       4.070787       110.7718 
 169   0.0000       4.083368       111.1141 
 170   0.0000       4.107788       111.7786 
 171   0.0000       4.128280       112.3362 
 172   0.0000       4.130578       112.3987 
 173   0.0000       4.196132       114.1825 
 174   0.0000       4.244848       115.5082 
 175   0.0000       4.268143       116.1421 
 176   0.0000       4.297535       116.9419 
 177   0.0000       4.329534       117.8126 
 178   0.0000       4.364094       118.7530 
 179   0.0000       4.422098       120.3314 
 180   0.0000       4.468126       121.5839 
 181   0.0000       4.475454       121.7833 
 182   0.0000       4.585117       124.7674 
 183   0.0000       4.594420       125.0205 
 184   0.0000       4.706028       128.0575 
 185   0.0000       4.734284       128.8264 
 186   0.0000       4.795370       130.4887 
 187   0.0000       4.850076       131.9773 
 188   0.0000       4.906900       133.5235 
 189   0.0000       4.920392       133.8907 
 190   0.0000       5.009346       136.3112 
 191   0.0000       5.043402       137.2379 
 192   0.0000       5.061994       137.7439 
 193   0.0000       5.158095       140.3589 
 194   0.0000       5.186207       141.1239 
 195   0.0000       5.224646       142.1699 
 196   0.0000       5.304646       144.3468 
 197   0.0000       5.338636       145.2717 
 198   0.0000       5.393974       146.7775 
 199   0.0000       5.401292       146.9766 
 200   0.0000       5.433328       147.8484 
 201   0.0000       5.459158       148.5512 
 202   0.0000       5.499842       149.6583 
 203   0.0000       5.514897       150.0680 
 204   0.0000       5.567421       151.4972 
 205   0.0000       5.707566       155.3108 
 206   0.0000       5.768684       156.9739 
 207   0.0000       5.798446       157.7837 
 208   0.0000       5.864734       159.5875 
 209   0.0000       5.872032       159.7861 
 210   0.0000       5.913140       160.9047 
 211   0.0000       6.113991       166.3702 
 212   0.0000      23.015219       626.2760 
 213   0.0000      23.495391       639.3421 
 214   0.0000      23.651341       643.5857 
 215   0.0000      32.404091       881.7601 

                 SPIN DOWN ORBITALS
  NO   OCC          E(Eh)            E(eV) 
   0   1.0000     -14.430619      -392.6771 
   1   1.0000     -10.350405      -281.6488 
   2   1.0000     -10.315772      -280.7064 
   3   1.0000     -10.290586      -280.0211 
   4   1.0000      -1.116866       -30.3915 
   5   1.0000      -0.877800       -23.8861 
   6   1.0000      -0.724889       -19.7252 
   7   1.0000      -0.685379       -18.6501 
   8   1.0000      -0.571493       -15.5511 
   9   1.0000      -0.541084       -14.7236 
  10   1.0000      -0.535096       -14.5607 
  11   1.0000      -0.476020       -12.9532 
  12   1.0000      -0.453226       -12.3329 
  13   1.0000      -0.380979       -10.3670 
  14   0.0000       0.032930         0.8961 
  15   0.0000       0.058742         1.5985 
  16   0.0000       0.072577         1.9749 
  17   0.0000       0.083594         2.2747 
  18   0.0000       0.105310         2.8656 
  19   0.0000       0.124069         3.3761 
  20   0.0000       0.140515         3.8236 
  21   0.0000       0.147844         4.0230 
  22   0.0000       0.175271         4.7694 
  23   0.0000       0.182450         4.9647 
  24   0.0000       0.186695         5.0802 
  25   0.0000       0.206111         5.6086 
  26   0.0000       0.215137         5.8542 
  27   0.0000       0.238013         6.4767 
  28   0.0000       0.243908         6.6371 
  29   0.0000       0.255587         6.9549 
  30   0.0000       0.269843         7.3428 
  31   0.0000       0.290168         7.8959 
  32   0.0000       0.296439         8.0665 
  33   0.0000       0.298467         8.1217 
  34   0.0000       0.313667         8.5353 
  35   0.0000       0.320795         8.7293 
  36   0.0000       0.332568         9.0496 
  37   0.0000       0.335428         9.1275 
  38   0.0000       0.346220         9.4211 
  39   0.0000       0.350184         9.5290 
  40   0.0000       0.358345         9.7511 
  41   0.0000       0.363955         9.9037 
  42   0.0000       0.374586        10.1930 
  43   0.0000       0.378298        10.2940 
  44   0.0000       0.400661        10.9025 
  45   0.0000       0.403388        10.9767 
  46   0.0000       0.422826        11.5057 
  47   0.0000       0.438337        11.9278 
  48   0.0000       0.441490        12.0136 
  49   0.0000       0.463060        12.6005 
  50   0.0000       0.465789        12.6748 
  51   0.0000       0.471753        12.8371 
  52   0.0000       0.488464        13.2918 
  53   0.0000       0.512227        13.9384 
  54   0.0000       0.523598        14.2478 
  55   0.0000       0.534839        14.5537 
  56   0.0000       0.552149        15.0248 
  57   0.0000       0.577539        15.7156 
  58   0.0000       0.588715        16.0197 
  59   0.0000       0.619282        16.8515 
  60   0.0000       0.631139        17.1742 
  61   0.0000       0.647459        17.6183 
  62   0.0000       0.654371        17.8063 
  63   0.0000       0.677331        18.4311 
  64   0.0000       0.687167        18.6988 
  65   0.0000       0.700647        19.0656 
  66   0.0000       0.719510        19.5789 
  67   0.0000       0.734674        19.9915 
  68   0.0000       0.740301        20.1446 
  69   0.0000       0.758625        20.6432 
  70   0.0000       0.763707        20.7815 
  71   0.0000       0.774604        21.0780 
  72   0.0000       0.788213        21.4484 
  73   0.0000       0.802279        21.8311 
  74   0.0000       0.816963        22.2307 
  75   0.0000       0.838003        22.8032 
  76   0.0000       0.858914        23.3723 
  77   0.0000       0.868603        23.6359 
  78   0.0000       0.912548        24.8317 
  79   0.0000       0.942624        25.6501 
  80   0.0000       0.947804        25.7911 
  81   0.0000       0.972525        26.4638 
  82   0.0000       1.014473        27.6052 
  83   0.0000       1.045616        28.4527 
  84   0.0000       1.076035        29.2804 
  85   0.0000       1.112254        30.2660 
  86   0.0000       1.123971        30.5848 
  87   0.0000       1.163473        31.6597 
  88   0.0000       1.197407        32.5831 
  89   0.0000       1.240351        33.7517 
  90   0.0000       1.274589        34.6833 
  91   0.0000       1.288925        35.0734 
  92   0.0000       1.319797        35.9135 
  93   0.0000       1.340242        36.4698 
  94   0.0000       1.367708        37.2172 
  95   0.0000       1.425413        38.7875 
  96   0.0000       1.437885        39.1268 
  97   0.0000       1.442827        39.2613 
  98   0.0000       1.547426        42.1076 
  99   0.0000       1.556336        42.3500 
 100   0.0000       1.614517        43.9332 
 101   0.0000       1.624368        44.2013 
 102   0.0000       1.657225        45.0954 
 103   0.0000       1.673549        45.5396 
 104   0.0000       1.692572        46.0572 
 105   0.0000       1.717410        46.7331 
 106   0.0000       1.723077        46.8873 
 107   0.0000       1.734530        47.1990 
 108   0.0000       1.745704        47.5030 
 109   0.0000       1.792910        48.7876 
 110   0.0000       1.817470        49.4559 
 111   0.0000       1.863997        50.7219 
 112   0.0000       1.908603        51.9357 
 113   0.0000       1.931140        52.5490 
 114   0.0000       1.971446        53.6458 
 115   0.0000       1.994281        54.2671 
 116   0.0000       2.092049        56.9276 
 117   0.0000       2.173151        59.1344 
 118   0.0000       2.210245        60.1438 
 119   0.0000       2.292004        62.3686 
 120   0.0000       2.348835        63.9150 
 121   0.0000       2.443345        66.4868 
 122   0.0000       2.509047        68.2746 
 123   0.0000       2.537185        69.0403 
 124   0.0000       2.618165        71.2439 
 125   0.0000       2.626903        71.4817 
 126   0.0000       2.699932        73.4689 
 127   0.0000       2.750119        74.8345 
 128   0.0000       2.769352        75.3579 
 129   0.0000       2.791567        75.9624 
 130   0.0000       2.853084        77.6364 
 131   0.0000       2.870220        78.1027 
 132   0.0000       2.884022        78.4782 
 133   0.0000       2.933123        79.8143 
 134   0.0000       2.945944        80.1632 
 135   0.0000       2.964396        80.6653 
 136   0.0000       3.033298        82.5402 
 137   0.0000       3.049414        82.9788 
 138   0.0000       3.075668        83.6932 
 139   0.0000       3.089734        84.0759 
 140   0.0000       3.138795        85.4109 
 141   0.0000       3.160772        86.0090 
 142   0.0000       3.187989        86.7496 
 143   0.0000       3.213807        87.4521 
 144   0.0000       3.232222        87.9532 
 145   0.0000       3.249395        88.4205 
 146   0.0000       3.264065        88.8197 
 147   0.0000       3.320815        90.3640 
 148   0.0000       3.348955        91.1297 
 149   0.0000       3.389312        92.2279 
 150   0.0000       3.406210        92.6877 
 151   0.0000       3.423421        93.1560 
 152   0.0000       3.436923        93.5234 
 153   0.0000       3.458929        94.1222 
 154   0.0000       3.507060        95.4319 
 155   0.0000       3.546006        96.4917 
 156   0.0000       3.575809        97.3027 
 157   0.0000       3.622891        98.5839 
 158   0.0000       3.646713        99.2321 
 159   0.0000       3.703932       100.7891 
 160   0.0000       3.728280       101.4517 
 161   0.0000       3.772878       102.6652 
 162   0.0000       3.810219       103.6813 
 163   0.0000       3.856566       104.9425 
 164   0.0000       3.889733       105.8450 
 165   0.0000       3.910507       106.4103 
 166   0.0000       3.982871       108.3794 
 167   0.0000       4.030625       109.6789 
 168   0.0000       4.076256       110.9206 
 169   0.0000       4.088264       111.2473 
 170   0.0000       4.111924       111.8912 
 171   0.0000       4.131936       112.4357 
 172   0.0000       4.135217       112.5250 
 173   0.0000       4.200735       114.3078 
 174   0.0000       4.251730       115.6955 
 175   0.0000       4.273370       116.2843 
 176   0.0000       4.310141       117.2849 
 177   0.0000       4.340910       118.1222 
 178   0.0000       4.369347       118.8960 
 179   0.0000       4.427985       120.4916 
 180   0.0000       4.475238       121.7774 
 181   0.0000       4.483998       122.0158 
 182   0.0000       4.591310       124.9359 
 183   0.0000       4.601780       125.2208 
 184   0.0000       4.714008       128.2747 
 185   0.0000       4.741576       129.0248 
 186   0.0000       4.810123       130.8901 
 187   0.0000       4.857789       132.1872 
 188   0.0000       4.919322       133.8616 
 189   0.0000       4.941286       134.4592 
 190   0.0000       5.024314       136.7185 
 191   0.0000       5.053482       137.5122 
 192   0.0000       5.078882       138.2034 
 193   0.0000       5.170356       140.6926 
 194   0.0000       5.196640       141.4078 
 195   0.0000       5.235078       142.4537 
 196   0.0000       5.312328       144.5558 
 197   0.0000       5.343872       145.4141 
 198   0.0000       5.402780       147.0171 
 199   0.0000       5.411892       147.2651 
 200   0.0000       5.436417       147.9324 
 201   0.0000       5.461235       148.6078 
 202   0.0000       5.505087       149.8010 
 203   0.0000       5.520188       150.2119 
 204   0.0000       5.573734       151.6690 
 205   0.0000       5.712935       155.4569 
 206   0.0000       5.772544       157.0789 
 207   0.0000       5.800812       157.8481 
 208   0.0000       5.866508       159.6358 
 209   0.0000       5.880402       160.0139 
 210   0.0000       5.918241       161.0435 
 211   0.0000       6.116380       166.4351 
 212   0.0000      23.026728       626.5891 
 213   0.0000      23.493650       639.2947 
 214   0.0000      23.651304       643.5847 
 215   0.0000      32.413330       882.0116 

                    ********************************
                    * MULLIKEN POPULATION ANALYSIS *
                    ********************************

--------------------------------------------
MULLIKEN ATOMIC CHARGES AND SPIN POPULATIONS
--------------------------------------------
   0 N :   -0.366139    0.399081
   1 C :    0.030370   -0.105567
   2 H :    0.073182    0.048149
   3 H :    0.031660    0.003033
   4 H :    0.038774    0.015498
   5 C :    0.214948    0.629391
   6 C :   -0.079767    0.016349
   7 H :    0.056973   -0.005934
Sum of atomic charges         :   -0.0000000
Sum of atomic spin populations:    1.0000000

-----------------------------------------------------
MULLIKEN REDUCED ORBITAL CHARGES AND SPIN POPULATIONS
-----------------------------------------------------
CHARGE
  0 N s       :     3.976478  s :     3.976478
      pz      :     1.133643  p :     3.319066
      px      :     1.126286
      py      :     1.059137
      dz2     :     0.012933  d :     0.066906
      dxz     :     0.016092
      dyz     :     0.005164
      dx2y2   :     0.012185
      dxy     :     0.020532
      f0      :     0.000505  f :     0.003690
      f+1     :     0.000527
      f-1     :     0.000164
      f+2     :     0.000920
      f-2     :     0.000267
      f+3     :     0.000429
      f-3     :     0.000878
  1 C s       :     3.226503  s :     3.226503
      pz      :     0.953863  p :     2.583297
      px      :     0.869254
      py      :     0.760180
      dz2     :     0.018451  d :     0.146303
      dxz     :     0.063820
      dyz     :     0.012639
      dx2y2   :     0.012373
      dxy     :     0.039019
      f0      :     0.002565  f :     0.013527
      f+1     :     0.001297
      f-1     :     0.000878
      f+2     :     0.003340
      f-2     :     0.000859
      f+3     :     0.001547
      f-3     :     0.003041
  2 H s       :     0.884379  s :     0.884379
      pz      :     0.004566  p :     0.040561
      px      :     0.010110
      py      :     0.025886
      dz2     :     0.000110  d :     0.001878
      dxz     :     0.000084
      dyz     :     0.000696
      dx2y2   :     0.000423
      dxy     :     0.000565
  3 H s       :     0.933027  s :     0.933027
      pz      :     0.014510  p :     0.034352
      px      :     0.014310
      py      :     0.005532
      dz2     :     0.000304  d :     0.000962
      dxz     :     0.000245
      dyz     :     0.000041
      dx2y2   :     0.000263
      dxy     :     0.000108
  4 H s       :     0.906349  s :     0.906349
      pz      :     0.016504  p :     0.052986
      px      :     0.019837
      py      :     0.016645
      dz2     :     0.000468  d :     0.001891
      dxz     :     0.000316
      dyz     :     0.000259
      dx2y2   :     0.000579
      dxy     :     0.000269
  5 C s       :     3.130372  s :     3.130372
      pz      :     0.659949  p :     2.490459
      px      :     0.905678
      py      :     0.924832
      dz2     :     0.030597  d :     0.151945
      dxz     :     0.021344
      dyz     :     0.075043
      dx2y2   :     0.015456
      dxy     :     0.009506
      f0      :     0.003923  f :     0.012276
      f+1     :     0.002963
      f-1     :     0.002713
      f+2     :     0.001509
      f-2     :     0.000895
      f+3     :     0.000092
      f-3     :     0.000181
  6 C s       :     2.930518  s :     2.930518
      pz      :     0.922472  p :     3.070827
      px      :     1.079761
      py      :     1.068594
      dz2     :     0.015752  d :     0.075007
      dxz     :     0.022639
      dyz     :     0.016813
      dx2y2   :     0.008005
      dxy     :     0.011798
      f0      :     0.000876  f :     0.003415
      f+1     :     0.000746
      f-1     :     0.000865
      f+2     :     0.000347
      f-2     :     0.000180
      f+3     :     0.000246
      f-3     :     0.000156
  7 H s       :     0.894213  s :     0.894213
      pz      :     0.016036  p :     0.046935
      px      :     0.020401
      py      :     0.010497
      dz2     :     0.000493  d :     0.001879
      dxz     :     0.000383
      dyz     :     0.000178
      dx2y2   :     0.000281
      dxy     :     0.000544

SPIN
  0 N s       :    -0.010644  s :    -0.010644
      pz      :     0.011736  p :     0.409643
      px      :     0.013230
      py      :     0.384677
      dz2     :     0.001005  d :     0.000344
      dxz     :     0.000093
      dyz     :     0.001296
      dx2y2   :     0.000386
      dxy     :    -0.002436
      f0      :     0.000007  f :    -0.000261
      f+1     :     0.000039
      f-1     :     0.000034
      f+2     :    -0.000015
      f-2     :     0.000034
      f+3     :    -0.000122
      f-3     :    -0.000239
  1 C s       :     0.021322  s :     0.021322
      pz      :    -0.021462  p :    -0.159035
      px      :    -0.003356
      py      :    -0.134217
      dz2     :     0.004801  d :     0.029675
      dxz     :    -0.003905
      dyz     :     0.010293
      dx2y2   :     0.003435
      dxy     :     0.015051
      f0      :     0.000388  f :     0.002471
      f+1     :     0.000140
      f-1     :     0.000512
      f+2     :     0.000197
      f-2     :     0.000139
      f+3     :     0.000112
      f-3     :     0.000984
  2 H s       :     0.048878  s :     0.048878
      pz      :    -0.000694  p :    -0.000791
      px      :    -0.000861
      py      :     0.000764
      dz2     :     0.000004  d :     0.000062
      dxz     :     0.000011
      dyz     :     0.000035
      dx2y2   :     0.000006
      dxy     :     0.000005
  3 H s       :     0.002869  s :     0.002869
      pz      :    -0.000648  p :     0.000265
      px      :     0.000719
      py      :     0.000195
      dz2     :    -0.000009  d :    -0.000102
      dxz     :    -0.000022
      dyz     :    -0.000025
      dx2y2   :    -0.000010
      dxy     :    -0.000036
  4 H s       :     0.015610  s :     0.015610
      pz      :    -0.001898  p :    -0.000132
      px      :     0.002028
      py      :    -0.000262
      dz2     :     0.000004  d :     0.000020
      dxz     :    -0.000002
      dyz     :     0.000016
      dx2y2   :    -0.000000
      dxy     :     0.000002
  5 C s       :     0.108703  s :     0.108703
      pz      :    -0.019981  p :     0.510266
      px      :     0.010378
      py      :     0.519870
      dz2     :    -0.006650  d :     0.011122
      dxz     :     0.000220
      dyz     :     0.007691
      dx2y2   :     0.004537
      dxy     :     0.005325
      f0      :    -0.000313  f :    -0.000701
      f+1     :    -0.000122
      f-1     :    -0.000288
      f+2     :    -0.000123
      f-2     :     0.000145
      f+3     :     0.000004
      f-3     :    -0.000004
  6 C s       :     0.033349  s :     0.033349
      pz      :    -0.007195  p :    -0.036223
      px      :    -0.009500
      py      :    -0.019529
      dz2     :     0.002472  d :     0.018441
      dxz     :     0.001563
      dyz     :     0.022324
      dx2y2   :    -0.008273
      dxy     :     0.000354
      f0      :     0.000348  f :     0.000782
      f+1     :     0.000044
      f-1     :     0.000260
      f+2     :     0.000090
      f-2     :     0.000018
      f+3     :     0.000008
      f-3     :     0.000014
  7 H s       :    -0.005213  s :    -0.005213
      pz      :    -0.000812  p :    -0.000742
      px      :    -0.000306
      py      :     0.000376
      dz2     :     0.000012  d :     0.000021
      dxz     :     0.000009
      dyz     :     0.000001
      dx2y2   :    -0.000001
      dxy     :    -0.000000


                     *******************************
                     * LOEWDIN POPULATION ANALYSIS *
                     *******************************

-------------------------------------------
LOEWDIN ATOMIC CHARGES AND SPIN POPULATIONS
-------------------------------------------
   0 N :    0.138350    0.374994
   1 C :   -0.055530   -0.000481
   2 H :   -0.002129    0.025378
   3 H :    0.008302   -0.012120
   4 H :   -0.013113    0.008710
   5 C :   -0.169522    0.516888
   6 C :    0.107108    0.086875
   7 H :   -0.013466   -0.000245

----------------------------------------------------
LOEWDIN REDUCED ORBITAL CHARGES AND SPIN POPULATIONS
----------------------------------------------------
CHARGE
  0 N s       :     3.185910  s :     3.185910
      pz      :     1.037764  p :     3.262965
      px      :     1.285454
      py      :     0.939747
      dz2     :     0.074711  d :     0.395956
      dxz     :     0.127622
      dyz     :     0.040111
      dx2y2   :     0.084244
      dxy     :     0.069267
      f0      :     0.003062  f :     0.016819
      f+1     :     0.002483
      f-1     :     0.000692
      f+2     :     0.004580
      f-2     :     0.000827
      f+3     :     0.002550
      f-3     :     0.002625
  1 C s       :     2.725565  s :     2.725565
      pz      :     0.928596  p :     2.513230
      px      :     0.939517
      py      :     0.645117
      dz2     :     0.135775  d :     0.743369
      dxz     :     0.286366
      dyz     :     0.080938
      dx2y2   :     0.139892
      dxy     :     0.100397
      f0      :     0.016451  f :     0.073366
      f+1     :     0.008547
      f-1     :     0.007416
      f+2     :     0.016020
      f-2     :     0.003454
      f+3     :     0.009240
      f-3     :     0.012238
  2 H s       :     0.697839  s :     0.697839
      pz      :     0.067912  p :     0.276102
      px      :     0.079973
      py      :     0.128218
      dz2     :     0.002588  d :     0.028188
      dxz     :     0.000896
      dyz     :     0.007962
      dx2y2   :     0.008104
      dxy     :     0.008637
  3 H s       :     0.733766  s :     0.733766
      pz      :     0.084477  p :     0.232297
      px      :     0.093164
      py      :     0.054656
      dz2     :     0.005607  d :     0.025635
      dxz     :     0.008532
      dyz     :     0.002652
      dx2y2   :     0.004857
      dxy     :     0.003988
  4 H s       :     0.707993  s :     0.707993
      pz      :     0.080554  p :     0.276517
      px      :     0.103588
      py      :     0.092375
      dz2     :     0.005132  d :     0.028603
      dxz     :     0.005660
      dyz     :     0.004327
      dx2y2   :     0.007587
      dxy     :     0.005897
  5 C s       :     2.713299  s :     2.713299
      pz      :     0.912071  p :     2.542301
      px      :     0.831744
      py      :     0.798485
      dz2     :     0.251741  d :     0.849642
      dxz     :     0.276272
      dyz     :     0.224343
      dx2y2   :     0.062459
      dxy     :     0.034826
      f0      :     0.020066  f :     0.064281
      f+1     :     0.013507
      f-1     :     0.012241
      f+2     :     0.010388
      f-2     :     0.006214
      f+3     :     0.000536
      f-3     :     0.001329
  6 C s       :     2.655509  s :     2.655509
      pz      :     0.891919  p :     2.734283
      px      :     0.925737
      py      :     0.916627
      dz2     :     0.114732  d :     0.470364
      dxz     :     0.133514
      dyz     :     0.107466
      dx2y2   :     0.067705
      dxy     :     0.046946
      f0      :     0.006921  f :     0.032735
      f+1     :     0.004786
      f-1     :     0.007683
      f+2     :     0.004108
      f-2     :     0.003966
      f+3     :     0.003098
      f-3     :     0.002174
  7 H s       :     0.707801  s :     0.707801
      pz      :     0.082651  p :     0.277042
      px      :     0.118229
      py      :     0.076162
      dz2     :     0.005450  d :     0.028623
      dxz     :     0.007960
      dyz     :     0.002131
      dx2y2   :     0.005984
      dxy     :     0.007097

SPIN
  0 N s       :     0.008201  s :     0.008201
      pz      :     0.012315  p :     0.337695
      px      :     0.006403
      py      :     0.318977
      dz2     :     0.000935  d :     0.028936
      dxz     :    -0.000052
      dyz     :     0.023456
      dx2y2   :     0.004561
      dxy     :     0.000036
      f0      :    -0.000014  f :     0.000163
      f+1     :     0.000058
      f-1     :     0.000223
      f+2     :     0.000313
      f-2     :     0.000300
      f+3     :    -0.000087
      f-3     :    -0.000631
  1 C s       :    -0.000603  s :    -0.000603
      pz      :    -0.008194  p :    -0.107719
      px      :    -0.005006
      py      :    -0.094519
      dz2     :     0.005688  d :     0.091317
      dxz     :    -0.000393
      dyz     :     0.049471
      dx2y2   :     0.009619
      dxy     :     0.026931
      f0      :     0.002458  f :     0.016524
      f+1     :     0.000760
      f-1     :     0.004090
      f+2     :     0.001143
      f-2     :     0.001215
      f+3     :     0.000435
      f-3     :     0.006424
  2 H s       :     0.020787  s :     0.020787
      pz      :     0.001260  p :     0.004407
      px      :     0.000116
      py      :     0.003030
      dz2     :    -0.000027  d :     0.000184
      dxz     :     0.000071
      dyz     :     0.000230
      dx2y2   :    -0.000040
      dxy     :    -0.000051
  3 H s       :     0.001087  s :     0.001087
      pz      :    -0.001712  p :    -0.011607
      px      :    -0.000893
      py      :    -0.009001
      dz2     :    -0.000153  d :    -0.001600
      dxz     :    -0.000183
      dyz     :    -0.000442
      dx2y2   :    -0.000136
      dxy     :    -0.000686
  4 H s       :     0.007842  s :     0.007842
      pz      :     0.000840  p :     0.000895
      px      :     0.000534
      py      :    -0.000480
      dz2     :    -0.000045  d :    -0.000026
      dxz     :    -0.000009
      dyz     :     0.000036
      dx2y2   :     0.000025
      dxy     :    -0.000034
  5 C s       :     0.045451  s :     0.045451
      pz      :     0.004555  p :     0.434338
      px      :     0.013363
      py      :     0.416420
      dz2     :     0.018695  d :     0.036806
      dxz     :    -0.001655
      dyz     :    -0.002229
      dx2y2   :     0.010688
      dxy     :     0.011307
      f0      :    -0.000471  f :     0.000294
      f+1     :    -0.000122
      f-1     :    -0.000116
      f+2     :     0.000264
      f-2     :     0.000543
      f+3     :     0.000122
      f-3     :     0.000072
  6 C s       :     0.007399  s :     0.007399
      pz      :     0.002471  p :     0.001041
      px      :    -0.000680
      py      :    -0.000750
      dz2     :     0.007286  d :     0.073267
      dxz     :     0.001864
      dyz     :     0.042695
      dx2y2   :     0.013775
      dxy     :     0.007646
      f0      :     0.001977  f :     0.005169
      f+1     :     0.000161
      f-1     :     0.002174
      f+2     :     0.000625
      f-2     :     0.000087
      f+3     :     0.000085
      f-3     :     0.000060
  7 H s       :     0.000472  s :     0.000472
      pz      :    -0.000285  p :    -0.000738
      px      :    -0.000035
      py      :    -0.000418
      dz2     :     0.000005  d :     0.000021
      dxz     :     0.000028
      dyz     :    -0.000058
      dx2y2   :    -0.000007
      dxy     :     0.000053


                      *****************************
                      * MAYER POPULATION ANALYSIS *
                      *****************************

  NA   - Mulliken gross atomic population
  ZA   - Total nuclear charge
  QA   - Mulliken gross atomic charge
  VA   - Mayer's total valence
  BVA  - Mayer's bonded valence
  FA   - Mayer's free valence

  ATOM       NA         ZA         QA         VA         BVA        FA
  0 N      7.3661     7.0000    -0.3661     2.6621     2.4942     0.1679
  1 C      5.9696     6.0000     0.0304     4.0107     3.9962     0.0145
  2 H      0.9268     1.0000     0.0732     1.0524     1.0497     0.0027
  3 H      0.9683     1.0000     0.0317     1.0523     1.0522     0.0000
  4 H      0.9612     1.0000     0.0388     1.1021     1.1019     0.0002
  5 C      5.7851     6.0000     0.2149     3.4383     2.9403     0.4980
  6 C      6.0798     6.0000    -0.0798     3.9410     3.9380     0.0030
  7 H      0.9430     1.0000     0.0570     1.0663     1.0663    -0.0000

  Mayer bond orders larger than 0.100000
B(  0-N ,  1-C ) :   1.6564 B(  0-N ,  5-C ) :   0.7552 B(  1-C ,  3-H ) :   1.0066 
B(  1-C ,  5-C ) :   1.2451 B(  2-H ,  6-C ) :   0.9346 B(  4-H ,  6-C ) :   1.0029 
B(  5-C ,  6-C ) :   0.8963 B(  6-C ,  7-H ) :   1.0037 

-------
TIMINGS
-------

Total SCF time: 0 days 0 hours 0 min 10 sec 

Total time                  ....      10.997 sec
Sum of individual times     ....      10.695 sec  ( 97.3%)

Fock matrix formation       ....      10.098 sec  ( 91.8%)
  XC integration            ....       0.696 sec  (  6.9% of F)
    Basis function eval.    ....       0.094 sec  ( 13.5% of XC)
    Density eval.           ....       0.140 sec  ( 20.1% of XC)
    XC-Functional eval.     ....       0.035 sec  (  5.0% of XC)
    XC-Potential eval.      ....       0.281 sec  ( 40.4% of XC)
Diagonalization             ....       0.170 sec  (  1.5%)
Density matrix formation    ....       0.021 sec  (  0.2%)
Population analysis         ....       0.015 sec  (  0.1%)
Initial guess               ....       0.114 sec  (  1.0%)
Orbital Transformation      ....       0.000 sec  (  0.0%)
Orbital Orthonormalization  ....       0.000 sec  (  0.0%)
DIIS solution               ....       0.057 sec  (  0.5%)
Grid generation             ....       0.220 sec  (  2.0%)

-------------------------   --------------------
FINAL SINGLE POINT ENERGY      -171.341519773972
-------------------------   --------------------


                            ***************************************
                            *     ORCA property calculations      *
                            ***************************************

                                    ---------------------
                                    Active property flags
                                    ---------------------
   (+) Dipole Moment


------------------------------------------------------------------------------
                       ORCA ELECTRIC PROPERTIES CALCULATION
------------------------------------------------------------------------------

Dipole Moment Calculation                       ... on
Quadrupole Moment Calculation                   ... off
Polarizability Calculation                      ... off
GBWName                                         ... 111.gbw
Electron density file                           ... 111.scfp
The origin for moment calculation is the CENTER OF MASS  = ( 0.290275,  0.216643  0.970473)

-------------
DIPOLE MOMENT
-------------
                                X             Y             Z
Electronic contribution:      0.23786       0.70700       3.66708
Nuclear contribution   :     -1.13576      -0.94785      -4.02666
                        -----------------------------------------
Total Dipole Moment    :     -0.89790      -0.24085      -0.35958
                        -----------------------------------------
Magnitude (a.u.)       :      0.99676
Magnitude (Debye)      :      2.53357



--------------------
Rotational spectrum 
--------------------
 
Rotational constants in cm-1:     0.919406     0.218621     0.189338 
Rotational constants in MHz : 27563.112958  6554.079895  5676.208610 

 Dipole components along the rotational axes: 
x,y,z [a.u.] :    -0.359585    -0.897900    -0.240847 
x,y,z [Debye]:    -0.913993    -2.282281    -0.612184 

 

Timings for individual modules:

Sum of individual times         ...       12.054 sec (=   0.201 min)
GTO integral calculation        ...        0.679 sec (=   0.011 min)   5.6 %
SCF iterations                  ...       11.374 sec (=   0.190 min)  94.4 %
                             ****ORCA TERMINATED NORMALLY****
TOTAL RUN TIME: 0 days 0 hours 0 minutes 12 seconds 511 msec
