
                                 *****************
                                 * O   R   C   A *
                                 *****************

           --- An Ab Initio, DFT and Semiempirical electronic structure package ---

                  #######################################################
                  #                        -***-                        #
                  #          Department of theory and spectroscopy      #
                  #               Directorship: Frank Neese             #
                  #        Max Planck Institute fuer Kohlenforschung    #
                  #                Kaiser Wilhelm Platz 1               #
                  #                 D-45470 Muelheim/Ruhr               #
                  #                      Germany                        #
                  #                                                     #
                  #                  All rights reserved                #
                  #                        -***-                        #
                  #######################################################


                         Program Version 4.2.0 -  RELEASE  -


 With contributions from (in alphabetic order):
   Daniel Aravena         : Magnetic Suceptibility
   Michael Atanasov       : Ab Initio Ligand Field Theory (pilot matlab implementation)
   Alexander A. Auer      : GIAO ZORA, VPT2
   Ute Becker             : Parallelization
   Giovanni Bistoni       : ED, misc. LED, open-shell LED, HFLED
   Martin Brehm           : Molecular dynamics
   Dmytro Bykov           : SCF Hessian
   Vijay G. Chilkuri      : MRCI spin determinant printing, contributions to CSF-ICE
   Dipayan Datta          : RHF DLPNO-CCSD density
   Achintya Kumar Dutta   : EOM-CC, STEOM-CC
   Dmitry Ganyushin       : Spin-Orbit,Spin-Spin,Magnetic field MRCI
   Miquel Garcia          : C-PCM Hessian, Gaussian charge scheme
   Yang Guo               : DLPNO-NEVPT2, CIM, IAO-localization
   Andreas Hansen         : Spin unrestricted coupled pair/coupled cluster methods
   Benjamin Helmich-Paris : CASSCF linear response (MC-RPA)
   Lee Huntington         : MR-EOM, pCC
   Robert Izsak           : Overlap fitted RIJCOSX, COSX-SCS-MP3, EOM
   Christian Kollmar      : KDIIS, OOCD, Brueckner-CCSD(T), CCSD density
   Simone Kossmann        : Meta GGA functionals, TD-DFT gradient, OOMP2, MP2 Hessian
   Martin Krupicka        : AUTO-CI
   Lucas Lang             : DCDCAS
   Dagmar Lenk            : GEPOL surface, SMD
   Dimitrios Liakos       : Extrapolation schemes; Compound Job, initial MDCI parallelization
   Dimitrios Manganas     : Further ROCIS development; embedding schemes
   Dimitrios Pantazis     : SARC Basis sets
   Taras Petrenko         : DFT Hessian,TD-DFT gradient, ASA, ECA, R-Raman, ABS, FL, XAS/XES, NRVS
   Peter Pinski           : DLPNO-MP2, DLPNO-MP2 Gradient
   Christoph Reimann      : Effective Core Potentials
   Marius Retegan         : Local ZFS, SOC
   Christoph Riplinger    : Optimizer, TS searches, QM/MM, DLPNO-CCSD(T), (RO)-DLPNO pert. Triples
   Tobias Risthaus        : Range-separated hybrids, TD-DFT gradient, RPA, STAB
   Michael Roemelt        : Original ROCIS implementation
   Masaaki Saitow         : Open-shell DLPNO-CCSD energy and density
   Barbara Sandhoefer     : DKH picture change effects
   Avijit Sen             : IP-ROCIS
   Kantharuban Sivalingam : CASSCF convergence, NEVPT2, FIC-MRCI
   Bernardo de Souza      : ESD, SOC TD-DFT
   Georgi Stoychev        : AutoAux, RI-MP2 NMR
   Willem Van den Heuvel  : Paramagnetic NMR
   Boris Wezisla          : Elementary symmetry handling
   Frank Wennmohs         : Technical directorship


 We gratefully acknowledge several colleagues who have allowed us to
 interface, adapt or use parts of their codes:
   Stefan Grimme, W. Hujo, H. Kruse,             : VdW corrections, initial TS optimization,
                  C. Bannwarth                     DFT functionals, gCP, sTDA/sTD-DF
   Ed Valeev, F. Pavosevic, A. Kumar             : LibInt (2-el integral package), F12 methods
   Garnet Chan, S. Sharma, J. Yang, R. Olivares  : DMRG
   Ulf Ekstrom                                   : XCFun DFT Library
   Mihaly Kallay                                 : mrcc  (arbitrary order and MRCC methods)
   Andreas Klamt, Michael Diedenhofen            : otool_cosmo (COSMO solvation model)
   Jiri Pittner, Ondrej Demel                    : Mk-CCSD
   Frank Weinhold                                : gennbo (NPA and NBO analysis)
   Christopher J. Cramer and Donald G. Truhlar   : smd solvation model
   Lars Goerigk                                  : TD-DFT with DH, B97 family of functionals
   V. Asgeirsson, H. Jonsson                     : NEB implementation
   FAccTs GmbH                                   : IRC, NEB, NEB-TS, Multilevel, MM, QM/MM, CI optimization
   S Lehtola, MJT Oliveira, MAL Marques          : LibXC Library


 Your calculation uses the libint2 library for the computation of 2-el integrals
 For citations please refer to: http://libint.valeyev.net

 Your ORCA version has been built with support for libXC version: 4.2.3
 For citations please refer to: https://tddft.org/programs/libxc/

 This ORCA versions uses:
   CBLAS   interface :  Fast vector & matrix operations
   LAPACKE interface :  Fast linear algebra routines
   SCALAPACK package :  Parallel linear algebra routines


Your calculation utilizes the DFT-NL dispersion correction.
Cite in your paper:
Vydrov, O. A.; Van Voorhis, T. J. Chem. Phys. 2010, 133, 244103
Hujo, W.; Grimme, S. J. Chem. Theory Comput. 2011, 7, 3866 
   

----- Orbital basis set information -----
Your calculation utilizes the basis: def2-TZVPPD
   F. Weigend and R. Ahlrichs, Phys. Chem. Chem. Phys. 7, 3297 (2005).
   D. Rappoport and F. Furche, J. Chem. Phys. 133 134105 (2010).

----- AuxJK basis set information -----
Your calculation utilizes the auxiliary basis: def2/JK
   H-Ba, Hf-Rn: F. Weigend, J. Comput. Chem. 29, 167 (2008).

================================================================================
                                        WARNINGS
                       Please study these warnings very carefully!
================================================================================


WARNING: your system is open-shell and RHF/RKS was chosen
  ===> : WILL SWITCH to UHF/UKS


INFO   : the flag for use of LIBINT has been found!

================================================================================
                                       INPUT FILE
================================================================================
NAME = 123.in
|  1> #
|  2> # 123 wB97X-V/Def2-TZVPPD
|  3> #
|  4> ! wb97x-v def2-tzvppd def2/jk grid4 nofinalgrid
|  5> 
|  6> *xyz 0 2
|  7> H         -0.05566       -1.00378        1.35004
|  8> H         -0.85108        0.57288        1.07820
|  9> C          0.00090       -0.05557        0.78344
| 10> H         -0.84105       -0.66759       -1.01558
| 11> H          0.91403        0.47335        1.08996
| 12> H          0.01842        1.61333       -1.60506
| 13> H          0.81267       -0.72579       -1.00914
| 14> N          0.00176       -0.20682       -0.67186
| 15> *
| 16> 
| 17> %maxcore 5000
| 18> 
| 19> %pal
| 20> nprocs = 24
| 21> end
| 22> 
| 23> 
| 24>                          ****END OF INPUT****
================================================================================

                       ****************************
                       * Single Point Calculation *
                       ****************************

---------------------------------
CARTESIAN COORDINATES (ANGSTROEM)
---------------------------------
  H     -0.055660   -1.003780    1.350040
  H     -0.851080    0.572880    1.078200
  C      0.000900   -0.055570    0.783440
  H     -0.841050   -0.667590   -1.015580
  H      0.914030    0.473350    1.089960
  H      0.018420    1.613330   -1.605060
  H      0.812670   -0.725790   -1.009140
  N      0.001760   -0.206820   -0.671860

----------------------------
CARTESIAN COORDINATES (A.U.)
----------------------------
  NO LB      ZA    FRAG     MASS         X           Y           Z
   0 H     1.0000    0     1.008   -0.105182   -1.896869    2.551206
   1 H     1.0000    0     1.008   -1.608308    1.082586    2.037503
   2 C     6.0000    0    12.011    0.001701   -0.105012    1.480487
   3 H     1.0000    0     1.008   -1.589354   -1.261562   -1.919168
   4 H     1.0000    0     1.008    1.727266    0.894502    2.059726
   5 H     1.0000    0     1.008    0.034809    3.048752   -3.033124
   6 H     1.0000    0     1.008    1.535724   -1.371544   -1.906998
   7 N     7.0000    0    14.007    0.003326   -0.390833   -1.269631

--------------------------------
INTERNAL COORDINATES (ANGSTROEM)
--------------------------------
 H      0   0   0     0.000000000000     0.00000000     0.00000000
 H      1   0   0     1.786741928091     0.00000000     0.00000000
 C      2   1   0     1.098955313241    36.00687967     0.00000000
 H      3   2   1     2.078442023079    94.96235184   102.03919305
 H      3   2   1     1.098870908569   107.10659450   243.54424698
 H      4   3   2     2.507742290926    78.27591057    79.73626460
 H      4   3   2     1.654756342185    66.55644743   154.98275484
 N      7   4   3     1.020128760206    35.80452640   324.43929458

---------------------------
INTERNAL COORDINATES (A.U.)
---------------------------
 H      0   0   0     0.000000000000     0.00000000     0.00000000
 H      1   0   0     3.376452916087     0.00000000     0.00000000
 C      2   1   0     2.076724575443    36.00687967     0.00000000
 H      3   2   1     3.927686208852    94.96235184   102.03919305
 H      3   2   1     2.076565073729   107.10659450   243.54424698
 H      4   3   2     4.738946144303    78.27591057    79.73626460
 H      4   3   2     3.127036305098    66.55644743   154.98275484
 N      7   4   3     1.927763978126    35.80452640   324.43929458

---------------------
BASIS SET INFORMATION
---------------------
There are 3 groups of distinct atoms

 Group   1 Type H   : 5s3p1d contracted to 3s3p1d pattern {311/111/1}
 Group   2 Type C   : 12s6p3d1f contracted to 6s3p3d1f pattern {621111/411/111/1}
 Group   3 Type N   : 12s6p3d1f contracted to 6s3p3d1f pattern {621111/411/111/1}

Atom   0H    basis set group =>   1
Atom   1H    basis set group =>   1
Atom   2C    basis set group =>   2
Atom   3H    basis set group =>   1
Atom   4H    basis set group =>   1
Atom   5H    basis set group =>   1
Atom   6H    basis set group =>   1
Atom   7N    basis set group =>   3
----------------------------------
AUXILIARY/JK BASIS SET INFORMATION
----------------------------------
There are 3 groups of distinct atoms

 Group   1 Type H   : 4s2p2d contracted to 2s2p2d pattern {31/11/11}
 Group   2 Type C   : 14s10p6d2f1g contracted to 10s8p5d1f1g pattern {5111111111/31111111/21111/2/1}
 Group   3 Type N   : 14s10p6d2f1g contracted to 10s8p4d2f1g pattern {5111111111/31111111/3111/11/1}

Atom   0H    basis set group =>   1
Atom   1H    basis set group =>   1
Atom   2C    basis set group =>   2
Atom   3H    basis set group =>   1
Atom   4H    basis set group =>   1
Atom   5H    basis set group =>   1
Atom   6H    basis set group =>   1
Atom   7N    basis set group =>   3


           ************************************************************
           *        Program running with 24 parallel MPI-processes    *
           *              working on a common directory               *
           ************************************************************
------------------------------------------------------------------------------
                           ORCA GTO INTEGRAL CALCULATION
------------------------------------------------------------------------------

                         BASIS SET STATISTICS AND STARTUP INFO

 # of primitive gaussian shells          ...   98
 # of primitive gaussian functions       ...  218
 # of contracted shells                  ...   68
 # of contracted basis functions         ...  176
 Highest angular momentum                ...    3
 Maximum contraction depth               ...    6
 Integral package used                   ... LIBINT
 Integral threshhold            Thresh   ...  1.000e-10
 Primitive cut-off              TCut     ...  1.000e-11


------------------------------ INTEGRAL EVALUATION ----------------------------


 * One electron integrals 
 Pre-screening matrix                    ... done
 Shell pair data                         ... done (   0.001 sec)



           ************************************************************
           *        Program running with 24 parallel MPI-processes    *
           *              working on a common directory               *
           ************************************************************
-------------------------------------------------------------------------------
                                 ORCA SCF
-------------------------------------------------------------------------------

------------
SCF SETTINGS
------------
Hamiltonian:
 Density Functional     Method          .... DFT(GTOs)
 Exchange Functional    Exchange        .... WB97X-V
 Correlation Functional Correlation     .... WB97X-V
 Gradients option       PostSCFGGA      .... off
 Hybrid DFT is turned on
   Fraction HF Exchange ScalHFX         ....  0.167000
   Scaling of DF-GGA-X  ScalDFX         ....  0.000000
   Scaling of DF-GGA-C  ScalDFC         ....  1.000000
   Scaling of DF-LDA-C  ScalLDAC        ....  1.000000
   Perturbative correction              ....  0.000000
   Density functional embedding theory  .... OFF
 Long-range corrected/Screened/Range-Separated Hybrid DFT is turned on
   Amount of maximum screened exact exchange              ....  0.833000
   Range separation parameter mu (erf(mu*r12)/r12)        ....  0.300000
   NL short-range parameter             ....  6.000000
   NL long-range parameter              ....  0.010000


General Settings:
 Integral files         IntName         .... 123
 Hartree-Fock type      HFTyp           .... UHF
 Total Charge           Charge          ....    0
 Multiplicity           Mult            ....    2
 Number of Electrons    NEL             ....   19
 Basis Dimension        Dim             ....  176
 Nuclear Repulsion      ENuc            ....     45.6194448278 Eh

Convergence Acceleration:
 DIIS                   CNVDIIS         .... on
   Start iteration      DIISMaxIt       ....    12
   Startup error        DIISStart       ....  0.200000
   # of expansion vecs  DIISMaxEq       ....     5
   Bias factor          DIISBfac        ....   1.050
   Max. coefficient     DIISMaxC        ....  10.000
 Newton-Raphson         CNVNR           .... off
 SOSCF                  CNVSOSCF        .... off
 Level Shifting         CNVShift        .... on
   Level shift para.    LevelShift      ....    0.2500
   Turn off err/grad.   ShiftErr        ....    0.0010
 Zerner damping         CNVZerner       .... off
 Static damping         CNVDamp         .... on
   Fraction old density DampFac         ....    0.7000
   Max. Damping (<1)    DampMax         ....    0.9800
   Min. Damping (>=0)   DampMin         ....    0.0000
   Turn off err/grad.   DampErr         ....    0.1000
 Fernandez-Rico         CNVRico         .... off

SCF Procedure:
 Maximum # iterations   MaxIter         ....   125
 SCF integral mode      SCFMode         .... Direct
   Integral package                     .... LIBINT
 Reset frequency        DirectResetFreq ....    20
 Integral Threshold     Thresh          ....  1.000e-10 Eh
 Primitive CutOff       TCut            ....  1.000e-11 Eh

Convergence Tolerance:
 Convergence Check Mode ConvCheckMode   .... Total+1el-Energy
 Convergence forced     ConvForced      .... 0
 Energy Change          TolE            ....  1.000e-06 Eh
 1-El. energy change                    ....  1.000e-03 Eh
 DIIS Error             TolErr          ....  1.000e-06


Diagonalization of the overlap matrix:
Smallest eigenvalue                        ... 2.946e-05
Time for diagonalization                   ...    0.005 sec
Threshold for overlap eigenvalues          ... 1.000e-08
Number of eigenvalues below threshold      ... 0
Time for construction of square roots      ...    0.003 sec
Total time needed                          ...    0.008 sec

-------------------
DFT GRID GENERATION
-------------------

General Integration Accuracy     IntAcc      ...  4.670
Radial Grid Type                 RadialGrid  ... Gauss-Chebyshev
Angular Grid (max. acc.)         AngularGrid ... Lebedev-302
Angular grid pruning method      GridPruning ... 3 (G Style)
Weight generation scheme         WeightScheme... Becke
Basis function cutoff            BFCut       ...    1.0000e-10
Integration weight cutoff        WCut        ...    1.0000e-14
Grids for H and He will be reduced by one unit

# of grid points (after initial pruning)     ...  32788 (   0.0 sec)
# of grid points (after weights+screening)   ...  31357 (   0.0 sec)
nearest neighbour list constructed           ...    0.0 sec
Grid point re-assignment to atoms done       ...    0.0 sec
Grid point division into batches done        ...    0.1 sec
Reduced shell lists constructed in    0.1 sec

Total number of grid points                  ...    31357
Total number of batches                      ...      493
Average number of points per batch           ...       63
Average number of grid points per atom       ...     3920
Average number of shells per batch           ...    31.41 (46.19%)
Average number of basis functions per batch  ...    76.59 (43.52%)
Average number of large shells per batch     ...    23.68 (75.40%)
Average number of large basis fcns per batch ...    57.59 (75.19%)
Maximum spatial batch extension              ...  16.67, 14.98, 15.89 au
Average spatial batch extension              ...   0.35,  0.34,  0.32 au

Time for grid setup =    0.211 sec

------------------------------
INITIAL GUESS: MODEL POTENTIAL
------------------------------
Loading Hartree-Fock densities                     ... done
Calculating cut-offs                               ... done
Setting up the integral package                    ... done
Initializing the effective Hamiltonian             ... done
Starting the Coulomb interaction                   ... done (   0.0 sec)
Reading the grid                                   ... done
Mapping shells                                     ... done
Starting the XC term evaluation                    ... done (   0.0 sec)
  promolecular density results
     # of electrons  =     18.997134359
     EX              =     -8.737161356
     EC              =     -0.720848145
     EX+EC           =     -9.458009500
Transforming the Hamiltonian                       ... done (   0.0 sec)
Diagonalizing the Hamiltonian                      ... done (   0.0 sec)
Back transforming the eigenvectors                 ... done (   0.0 sec)
Now organizing SCF variables                       ... done
                      ------------------
                      INITIAL GUESS DONE (   0.3 sec)
                      ------------------
--------------
SCF ITERATIONS
--------------
ITER       Energy         Delta-E        Max-DP      RMS-DP      [F,P]     Damp
               ***  Starting incremental Fock matrix formation  ***
  0    -96.4109668846   0.000000000000 0.33998244  0.00244112  0.3023160 0.7000
  1    -96.4172843111  -0.006317426443 0.36741096  0.00257925  0.2088193 0.7000
                               ***Turning on DIIS***
  2    -96.4223365192  -0.005052208067 0.32208550  0.00223101  0.1436906 0.7000
  3    -96.4263098300  -0.003973310892 0.96138681  0.00654132  0.0987933 0.0000
  4    -96.4384987700  -0.012188939925 0.16984016  0.00110419  0.0100344 0.0000
  5    -96.4396792104  -0.001180440380 0.12628658  0.00083799  0.0077319 0.0000
  6    -96.4404649694  -0.000785759028 0.07217908  0.00050071  0.0049052 0.0000
  7    -96.4407946216  -0.000329652204 0.02927277  0.00021707  0.0026966 0.0000
  8    -96.4408776646  -0.000083043056 0.01619200  0.00012588  0.0013233 0.0000
  9    -96.4409034990  -0.000025834389 0.00959275  0.00008717  0.0007330 0.0000
 10    -96.4409103292  -0.000006830125 0.00070829  0.00000923  0.0001761 0.0000
                 **** Energy Check signals convergence ****

               *****************************************************
               *                     SUCCESS                       *
               *           SCF CONVERGED AFTER  11 CYCLES          *
               *****************************************************


Setting up the DFT-NL grid :

General Integration Accuracy     IntAcc      ...  4.340
Radial Grid Type                 RadialGrid  ... Gauss-Chebyshev
Angular Grid (max. acc.)         AngularGrid ... Lebedev-110
Angular grid pruning method      GridPruning ... 3 (G Style)
Weight generation scheme         WeightScheme... Becke
Basis function cutoff            BFCut       ...    1.0000e-10
Integration weight cutoff        WCut        ...    1.0000e-14
Grids for H and He will be reduced by one unit

# of grid points (after initial pruning)     ...   8122 (   0.0 sec)
# of grid points (after weights+screening)   ...   7845 (   0.0 sec)
nearest neighbour list constructed           ...    0.0 sec
Grid point re-assignment to atoms done       ...    0.0 sec
Grid point division into batches done        ...    0.0 sec
Reduced shell lists constructed in    0.0 sec

Total number of grid points                  ...     7845
Total number of batches                      ...      125
Average number of points per batch           ...       62
Average number of grid points per atom       ...      981
Average number of shells per batch           ...    41.14 (60.50%)
Average number of basis functions per batch  ...   104.86 (59.58%)
Average number of large shells per batch     ...    31.71 (77.08%)
Average number of large basis fcns per batch ...    78.86 (75.20%)
Maximum spatial batch extension              ...  15.95, 15.82, 17.48 au
Average spatial batch extension              ...   0.50,  0.49,  0.55 au

Final grid set up in    0.0 sec

-------------------------------------------------------------------------------
                         DFT-NL dispersion correction                          
-------------------------------------------------------------------------------

SC Energy -96.440910648 
NL    Energy 0.076284159 
SC+NL Energy -96.364626490 
NL done in    0.0 sec
-------------------------------------------------------------------------------

----------------
TOTAL SCF ENERGY
----------------

Total Energy       :          -96.36462649 Eh           -2622.21480 eV

Components:
Nuclear Repulsion  :           45.61944483 Eh            1241.36820 eV
Electronic Energy  :         -141.98407132 Eh           -3863.58300 eV
One Electron Energy:         -219.07219573 Eh           -5961.25751 eV
Two Electron Energy:           77.08812441 Eh            2097.67451 eV

Virial components:
Potential Energy   :         -192.23425100 Eh           -5230.95991 eV
Kinetic Energy     :           95.86962451 Eh            2608.74511 eV
Virial Ratio       :            2.00516328


DFT components:
N(Alpha)           :       10.000023335263 electrons
N(Beta)            :        9.000018492193 electrons
N(Total)           :       19.000041827456 electrons
E(X)               :       -9.059793154976 Eh       
E(C)               :       -0.721739040651 Eh       
NL Energy, E(C,NL) :        0.076284158513 Eh       
E(XC)              :       -9.705248037113 Eh       
DFET-embed. en.    :        0.000000000000 Eh       

---------------
SCF CONVERGENCE
---------------

  Last Energy change         ...   -3.1896e-07  Tolerance :   1.0000e-06
  Last MAX-Density change    ...    3.2501e-04  Tolerance :   1.0000e-05
  Last RMS-Density change    ...    4.0505e-06  Tolerance :   1.0000e-06
  Last DIIS Error            ...    5.3410e-05  Tolerance :   1.0000e-06

             **** THE GBW FILE WAS UPDATED (123.gbw) ****
             **** DENSITY FILE WAS UPDATED (123.scfp) ****
             **** ENERGY FILE WAS UPDATED (123.en.tmp) ****
----------------------
UHF SPIN CONTAMINATION
----------------------

Warning: in a DFT calculation there is little theoretical justification to 
         calculate <S**2> as in Hartree-Fock theory. We will do it anyways
         but you should keep in mind that the values have only limited relevance

Expectation value of <S**2>     :     0.753513
Ideal value S*(S+1) for S=0.5   :     0.750000
Deviation                       :     0.003513

             **** THE GBW FILE WAS UPDATED (123.gbw) ****
             **** DENSITY FILE WAS UPDATED (123.scfp) ****
----------------
ORBITAL ENERGIES
----------------
                 SPIN UP ORBITALS
  NO   OCC          E(Eh)            E(eV) 
   0   1.0000     -14.415527      -392.2664 
   1   1.0000     -10.298909      -280.2476 
   2   1.0000      -1.025109       -27.8946 
   3   1.0000      -0.799417       -21.7532 
   4   1.0000      -0.621776       -16.9194 
   5   1.0000      -0.567228       -15.4350 
   6   1.0000      -0.532074       -14.4785 
   7   1.0000      -0.486391       -13.2354 
   8   1.0000      -0.417412       -11.3584 
   9   1.0000      -0.299812        -8.1583 
  10   0.0000       0.064019         1.7420 
  11   0.0000       0.086083         2.3424 
  12   0.0000       0.118292         3.2189 
  13   0.0000       0.139074         3.7844 
  14   0.0000       0.154567         4.2060 
  15   0.0000       0.160563         4.3692 
  16   0.0000       0.183554         4.9948 
  17   0.0000       0.186249         5.0681 
  18   0.0000       0.213382         5.8064 
  19   0.0000       0.230555         6.2737 
  20   0.0000       0.232563         6.3284 
  21   0.0000       0.242346         6.5946 
  22   0.0000       0.266075         7.2403 
  23   0.0000       0.269881         7.3438 
  24   0.0000       0.281111         7.6494 
  25   0.0000       0.299709         8.1555 
  26   0.0000       0.313979         8.5438 
  27   0.0000       0.335526         9.1301 
  28   0.0000       0.342223         9.3124 
  29   0.0000       0.351935         9.5766 
  30   0.0000       0.356375         9.6975 
  31   0.0000       0.363363         9.8876 
  32   0.0000       0.375183        10.2092 
  33   0.0000       0.387662        10.5488 
  34   0.0000       0.391110        10.6427 
  35   0.0000       0.401432        10.9235 
  36   0.0000       0.446171        12.1409 
  37   0.0000       0.447836        12.1862 
  38   0.0000       0.454570        12.3695 
  39   0.0000       0.456030        12.4092 
  40   0.0000       0.481779        13.1099 
  41   0.0000       0.487770        13.2729 
  42   0.0000       0.535321        14.5668 
  43   0.0000       0.557837        15.1795 
  44   0.0000       0.577423        15.7125 
  45   0.0000       0.579968        15.7817 
  46   0.0000       0.616182        16.7672 
  47   0.0000       0.646529        17.5930 
  48   0.0000       0.667693        18.1689 
  49   0.0000       0.672880        18.3100 
  50   0.0000       0.689110        18.7516 
  51   0.0000       0.762812        20.7572 
  52   0.0000       0.774784        21.0829 
  53   0.0000       0.780939        21.2504 
  54   0.0000       0.803500        21.8643 
  55   0.0000       0.817266        22.2389 
  56   0.0000       0.856168        23.2975 
  57   0.0000       0.911558        24.8048 
  58   0.0000       0.951824        25.9005 
  59   0.0000       0.964670        26.2500 
  60   0.0000       0.971405        26.4333 
  61   0.0000       1.019970        27.7548 
  62   0.0000       1.021966        27.8091 
  63   0.0000       1.077476        29.3196 
  64   0.0000       1.091437        29.6995 
  65   0.0000       1.120066        30.4786 
  66   0.0000       1.173491        31.9323 
  67   0.0000       1.201759        32.7015 
  68   0.0000       1.210418        32.9371 
  69   0.0000       1.249530        34.0014 
  70   0.0000       1.267223        34.4829 
  71   0.0000       1.276336        34.7309 
  72   0.0000       1.343989        36.5718 
  73   0.0000       1.366612        37.1874 
  74   0.0000       1.370922        37.3047 
  75   0.0000       1.425498        38.7898 
  76   0.0000       1.454405        39.5764 
  77   0.0000       1.493374        40.6368 
  78   0.0000       1.541366        41.9427 
  79   0.0000       1.582377        43.0587 
  80   0.0000       1.609859        43.8065 
  81   0.0000       1.696252        46.1574 
  82   0.0000       1.709952        46.5301 
  83   0.0000       1.792459        48.7753 
  84   0.0000       1.806551        49.1587 
  85   0.0000       1.844971        50.2042 
  86   0.0000       1.900061        51.7033 
  87   0.0000       1.945724        52.9458 
  88   0.0000       1.948001        53.0078 
  89   0.0000       2.175632        59.2020 
  90   0.0000       2.274201        61.8842 
  91   0.0000       2.397567        65.2411 
  92   0.0000       2.529667        68.8357 
  93   0.0000       2.666711        72.5649 
  94   0.0000       2.697335        73.3982 
  95   0.0000       2.750559        74.8465 
  96   0.0000       2.765318        75.2481 
  97   0.0000       2.821265        76.7705 
  98   0.0000       2.833584        77.1057 
  99   0.0000       2.927096        79.6503 
 100   0.0000       2.956967        80.4632 
 101   0.0000       3.013253        81.9948 
 102   0.0000       3.019522        82.1654 
 103   0.0000       3.056047        83.1593 
 104   0.0000       3.100307        84.3636 
 105   0.0000       3.123352        84.9907 
 106   0.0000       3.175195        86.4015 
 107   0.0000       3.195644        86.9579 
 108   0.0000       3.254751        88.5663 
 109   0.0000       3.271983        89.0352 
 110   0.0000       3.355976        91.3207 
 111   0.0000       3.368602        91.6643 
 112   0.0000       3.379195        91.9526 
 113   0.0000       3.429108        93.3108 
 114   0.0000       3.431324        93.3711 
 115   0.0000       3.461275        94.1861 
 116   0.0000       3.476752        94.6072 
 117   0.0000       3.491156        94.9992 
 118   0.0000       3.534031        96.1659 
 119   0.0000       3.553235        96.6884 
 120   0.0000       3.555468        96.7492 
 121   0.0000       3.599739        97.9539 
 122   0.0000       3.633053        98.8604 
 123   0.0000       3.645441        99.1975 
 124   0.0000       3.728296       101.4521 
 125   0.0000       3.759555       102.3027 
 126   0.0000       3.875983       105.4709 
 127   0.0000       3.883462       105.6744 
 128   0.0000       3.944439       107.3336 
 129   0.0000       3.952004       107.5395 
 130   0.0000       3.983943       108.4086 
 131   0.0000       4.016088       109.2833 
 132   0.0000       4.068378       110.7062 
 133   0.0000       4.099496       111.5529 
 134   0.0000       4.146926       112.8436 
 135   0.0000       4.200204       114.2934 
 136   0.0000       4.225561       114.9834 
 137   0.0000       4.262453       115.9872 
 138   0.0000       4.278248       116.4171 
 139   0.0000       4.299808       117.0037 
 140   0.0000       4.339157       118.0745 
 141   0.0000       4.361793       118.6904 
 142   0.0000       4.380989       119.2128 
 143   0.0000       4.417240       120.1992 
 144   0.0000       4.459504       121.3493 
 145   0.0000       4.495877       122.3390 
 146   0.0000       4.554162       123.9250 
 147   0.0000       4.566094       124.2497 
 148   0.0000       4.731685       128.7557 
 149   0.0000       4.739273       128.9622 
 150   0.0000       4.897950       133.2800 
 151   0.0000       4.991855       135.8353 
 152   0.0000       5.002328       136.1203 
 153   0.0000       5.045038       137.2825 
 154   0.0000       5.126373       139.4957 
 155   0.0000       5.131969       139.6480 
 156   0.0000       5.265128       143.2714 
 157   0.0000       5.323536       144.8608 
 158   0.0000       5.338583       145.2702 
 159   0.0000       5.369855       146.1212 
 160   0.0000       5.436886       147.9452 
 161   0.0000       5.462188       148.6337 
 162   0.0000       5.520229       150.2131 
 163   0.0000       5.584075       151.9504 
 164   0.0000       5.704889       155.2379 
 165   0.0000       5.726292       155.8203 
 166   0.0000       5.763358       156.8289 
 167   0.0000       5.844388       159.0339 
 168   0.0000       5.930181       161.3684 
 169   0.0000       6.070111       165.1761 
 170   0.0000       6.097715       165.9273 
 171   0.0000       6.254701       170.1991 
 172   0.0000       6.748261       183.6295 
 173   0.0000       6.750831       183.6995 
 174   0.0000      23.676974       644.2832 
 175   0.0000      32.888770       894.9489 

                 SPIN DOWN ORBITALS
  NO   OCC          E(Eh)            E(eV) 
   0   1.0000     -14.411980      -392.1699 
   1   1.0000     -10.298981      -280.2495 
   2   1.0000      -1.019816       -27.7506 
   3   1.0000      -0.797782       -21.7087 
   4   1.0000      -0.619438       -16.8558 
   5   1.0000      -0.563472       -15.3328 
   6   1.0000      -0.527067       -14.3422 
   7   1.0000      -0.485752       -13.2180 
   8   1.0000      -0.366073        -9.9614 
   9   0.0000       0.034199         0.9306 
  10   0.0000       0.073278         1.9940 
  11   0.0000       0.092587         2.5194 
  12   0.0000       0.120323         3.2742 
  13   0.0000       0.141695         3.8557 
  14   0.0000       0.155914         4.2426 
  15   0.0000       0.162989         4.4351 
  16   0.0000       0.187289         5.0964 
  17   0.0000       0.189532         5.1574 
  18   0.0000       0.227608         6.1935 
  19   0.0000       0.234405         6.3785 
  20   0.0000       0.235868         6.4183 
  21   0.0000       0.269919         7.3449 
  22   0.0000       0.271595         7.3905 
  23   0.0000       0.272450         7.4138 
  24   0.0000       0.282359         7.6834 
  25   0.0000       0.311875         8.4866 
  26   0.0000       0.318197         8.6586 
  27   0.0000       0.336621         9.1599 
  28   0.0000       0.346876         9.4390 
  29   0.0000       0.354410         9.6440 
  30   0.0000       0.360029         9.7969 
  31   0.0000       0.364693         9.9238 
  32   0.0000       0.380472        10.3532 
  33   0.0000       0.390988        10.6393 
  34   0.0000       0.393129        10.6976 
  35   0.0000       0.402989        10.9659 
  36   0.0000       0.448188        12.1958 
  37   0.0000       0.449926        12.2431 
  38   0.0000       0.456199        12.4138 
  39   0.0000       0.458271        12.4702 
  40   0.0000       0.483488        13.1564 
  41   0.0000       0.490884        13.3576 
  42   0.0000       0.536212        14.5911 
  43   0.0000       0.559559        15.2264 
  44   0.0000       0.579476        15.7683 
  45   0.0000       0.581342        15.8191 
  46   0.0000       0.626014        17.0347 
  47   0.0000       0.662664        18.0320 
  48   0.0000       0.668528        18.1916 
  49   0.0000       0.673737        18.3333 
  50   0.0000       0.715250        19.4629 
  51   0.0000       0.765880        20.8406 
  52   0.0000       0.776990        21.1430 
  53   0.0000       0.781386        21.2626 
  54   0.0000       0.806364        21.9423 
  55   0.0000       0.819335        22.2952 
  56   0.0000       0.871336        23.7102 
  57   0.0000       0.915368        24.9084 
  58   0.0000       0.965263        26.2661 
  59   0.0000       0.966093        26.2887 
  60   0.0000       0.986940        26.8560 
  61   0.0000       1.023111        27.8403 
  62   0.0000       1.035259        28.1708 
  63   0.0000       1.092847        29.7379 
  64   0.0000       1.119956        30.4755 
  65   0.0000       1.122143        30.5351 
  66   0.0000       1.185539        32.2602 
  67   0.0000       1.203931        32.7606 
  68   0.0000       1.211470        32.9658 
  69   0.0000       1.252544        34.0835 
  70   0.0000       1.272484        34.6261 
  71   0.0000       1.278594        34.7923 
  72   0.0000       1.349168        36.7127 
  73   0.0000       1.368324        37.2340 
  74   0.0000       1.373677        37.3796 
  75   0.0000       1.425654        38.7940 
  76   0.0000       1.466356        39.9016 
  77   0.0000       1.502097        40.8741 
  78   0.0000       1.543829        42.0097 
  79   0.0000       1.583068        43.0775 
  80   0.0000       1.610428        43.8220 
  81   0.0000       1.696525        46.1648 
  82   0.0000       1.712420        46.5973 
  83   0.0000       1.799045        48.9545 
  84   0.0000       1.808443        49.2102 
  85   0.0000       1.848369        50.2967 
  86   0.0000       1.901791        51.7504 
  87   0.0000       1.947832        53.0032 
  88   0.0000       1.950538        53.0768 
  89   0.0000       2.179053        59.2950 
  90   0.0000       2.275230        61.9122 
  91   0.0000       2.398863        65.2764 
  92   0.0000       2.540138        69.1207 
  93   0.0000       2.672724        72.7285 
  94   0.0000       2.745087        74.6976 
  95   0.0000       2.768053        75.3226 
  96   0.0000       2.820979        76.7627 
  97   0.0000       2.833367        77.0998 
  98   0.0000       2.879392        78.3523 
  99   0.0000       2.929380        79.7125 
 100   0.0000       2.957194        80.4693 
 101   0.0000       3.015204        82.0479 
 102   0.0000       3.021532        82.2201 
 103   0.0000       3.067901        83.4818 
 104   0.0000       3.101122        84.3858 
 105   0.0000       3.137230        85.3684 
 106   0.0000       3.183423        86.6253 
 107   0.0000       3.198706        87.0412 
 108   0.0000       3.259310        88.6903 
 109   0.0000       3.282262        89.3149 
 110   0.0000       3.375643        91.8559 
 111   0.0000       3.413459        92.8850 
 112   0.0000       3.442737        93.6816 
 113   0.0000       3.453358        93.9707 
 114   0.0000       3.461930        94.2039 
 115   0.0000       3.469704        94.4154 
 116   0.0000       3.493031        95.0502 
 117   0.0000       3.520839        95.8069 
 118   0.0000       3.548030        96.5468 
 119   0.0000       3.576580        97.3237 
 120   0.0000       3.586323        97.5888 
 121   0.0000       3.632174        98.8365 
 122   0.0000       3.652471        99.3888 
 123   0.0000       3.658366        99.5492 
 124   0.0000       3.729996       101.4983 
 125   0.0000       3.760721       102.3344 
 126   0.0000       3.878748       105.5461 
 127   0.0000       3.886462       105.7560 
 128   0.0000       3.961748       107.8046 
 129   0.0000       4.038220       109.8856 
 130   0.0000       4.052353       110.2701 
 131   0.0000       4.071271       110.7849 
 132   0.0000       4.083086       111.1064 
 133   0.0000       4.130014       112.3834 
 134   0.0000       4.158946       113.1707 
 135   0.0000       4.210381       114.5703 
 136   0.0000       4.244200       115.4906 
 137   0.0000       4.270042       116.1938 
 138   0.0000       4.279471       116.4503 
 139   0.0000       4.305926       117.1702 
 140   0.0000       4.352171       118.4286 
 141   0.0000       4.381790       119.2346 
 142   0.0000       4.409440       119.9870 
 143   0.0000       4.436878       120.7336 
 144   0.0000       4.460762       121.3835 
 145   0.0000       4.506370       122.6246 
 146   0.0000       4.556230       123.9813 
 147   0.0000       4.567007       124.2746 
 148   0.0000       4.736492       128.8865 
 149   0.0000       4.749385       129.2373 
 150   0.0000       4.903627       133.4345 
 151   0.0000       4.992697       135.8582 
 152   0.0000       5.005335       136.2021 
 153   0.0000       5.053315       137.5077 
 154   0.0000       5.127788       139.5342 
 155   0.0000       5.140892       139.8908 
 156   0.0000       5.266629       143.3123 
 157   0.0000       5.324689       144.8922 
 158   0.0000       5.343972       145.4169 
 159   0.0000       5.372783       146.2009 
 160   0.0000       5.439040       148.0038 
 161   0.0000       5.462680       148.6471 
 162   0.0000       5.526582       150.3859 
 163   0.0000       5.585948       152.0014 
 164   0.0000       5.706669       155.2864 
 165   0.0000       5.726650       155.8301 
 166   0.0000       5.766738       156.9209 
 167   0.0000       5.847063       159.1067 
 168   0.0000       5.933170       161.4498 
 169   0.0000       6.076380       165.3467 
 170   0.0000       6.101610       166.0333 
 171   0.0000       6.259075       170.3181 
 172   0.0000       6.751556       183.7192 
 173   0.0000       6.753740       183.7786 
 174   0.0000      23.676931       644.2820 
 175   0.0000      32.893006       895.0642 

                    ********************************
                    * MULLIKEN POPULATION ANALYSIS *
                    ********************************

--------------------------------------------
MULLIKEN ATOMIC CHARGES AND SPIN POPULATIONS
--------------------------------------------
   0 H :    0.084658    0.008958
   1 H :    0.076429   -0.004220
   2 C :   -0.118377   -0.007057
   3 H :    0.140592   -0.018420
   4 H :    0.075105   -0.002844
   5 H :   -0.044738    0.871665
   6 H :    0.142194   -0.019825
   7 N :   -0.355862    0.171744
Sum of atomic charges         :    0.0000000
Sum of atomic spin populations:    1.0000000

-----------------------------------------------------
MULLIKEN REDUCED ORBITAL CHARGES AND SPIN POPULATIONS
-----------------------------------------------------
CHARGE
  0 H s       :     0.870926  s :     0.870926
      pz      :     0.015828  p :     0.042536
      px      :     0.008112
      py      :     0.018596
      dz2     :     0.000627  d :     0.001881
      dxz     :     0.000146
      dyz     :     0.000300
      dx2y2   :     0.000238
      dxy     :     0.000569
  1 H s       :     0.879333  s :     0.879333
      pz      :     0.010827  p :     0.042306
      px      :     0.017282
      py      :     0.014197
      dz2     :     0.000306  d :     0.001932
      dxz     :     0.000416
      dyz     :     0.000287
      dx2y2   :     0.000646
      dxy     :     0.000276
  2 C s       :     3.098534  s :     3.098534
      pz      :     0.753484  p :     2.904629
      px      :     1.098483
      py      :     1.052662
      dz2     :     0.016421  d :     0.109326
      dxz     :     0.010405
      dyz     :     0.049836
      dx2y2   :     0.011630
      dxy     :     0.021034
      f0      :     0.001952  f :     0.005889
      f+1     :     0.001107
      f-1     :     0.002010
      f+2     :     0.000262
      f-2     :     0.000144
      f+3     :     0.000006
      f-3     :     0.000407
  3 H s       :     0.774955  s :     0.774955
      pz      :     0.018671  p :     0.079733
      px      :     0.020609
      py      :     0.040453
      dz2     :     0.000625  d :     0.004721
      dxz     :     0.001116
      dyz     :     0.000348
      dx2y2   :     0.001278
      dxy     :     0.001354
  4 H s       :     0.882762  s :     0.882762
      pz      :     0.010258  p :     0.040203
      px      :     0.018318
      py      :     0.011627
      dz2     :     0.000318  d :     0.001930
      dxz     :     0.000469
      dyz     :     0.000225
      dx2y2   :     0.000566
      dxy     :     0.000351
  5 H s       :     1.014485  s :     1.014485
      pz      :     0.006123  p :     0.030021
      px      :     0.000559
      py      :     0.023339
      dz2     :     0.000016  d :     0.000232
      dxz     :     0.000002
      dyz     :     0.000104
      dx2y2   :     0.000094
      dxy     :     0.000015
  6 H s       :     0.772932  s :     0.772932
      pz      :     0.018567  p :     0.080143
      px      :     0.020217
      py      :     0.041359
      dz2     :     0.000621  d :     0.004732
      dxz     :     0.001051
      dyz     :     0.000407
      dx2y2   :     0.001384
      dxy     :     0.001269
  7 N s       :     3.543204  s :     3.543204
      pz      :     1.148804  p :     3.779718
      px      :     1.114267
      py      :     1.516647
      dz2     :     0.010465  d :     0.031381
      dxz     :     0.003251
      dyz     :     0.008645
      dx2y2   :     0.002587
      dxy     :     0.006433
      f0      :     0.000570  f :     0.001559
      f+1     :     0.000323
      f-1     :     0.000386
      f+2     :     0.000025
      f-2     :     0.000072
      f+3     :     0.000012
      f-3     :     0.000170

SPIN
  0 H s       :     0.009340  s :     0.009340
      pz      :    -0.000347  p :    -0.000394
      px      :    -0.000082
      py      :     0.000035
      dz2     :     0.000010  d :     0.000013
      dxz     :    -0.000001
      dyz     :    -0.000002
      dx2y2   :     0.000005
      dxy     :     0.000001
  1 H s       :    -0.005011  s :    -0.005011
      pz      :    -0.002652  p :     0.000795
      px      :     0.000167
      py      :     0.003281
      dz2     :    -0.000001  d :    -0.000005
      dxz     :    -0.000002
      dyz     :    -0.000001
      dx2y2   :    -0.000002
      dxy     :     0.000002
  2 C s       :     0.000981  s :     0.000981
      pz      :    -0.007641  p :    -0.009192
      px      :    -0.000938
      py      :    -0.000612
      dz2     :     0.002235  d :     0.000988
      dxz     :     0.000025
      dyz     :    -0.000040
      dx2y2   :    -0.001122
      dxy     :    -0.000110
      f0      :     0.000017  f :     0.000166
      f+1     :    -0.000005
      f-1     :     0.000135
      f+2     :     0.000018
      f-2     :    -0.000000
      f+3     :     0.000000
      f-3     :    -0.000000
  3 H s       :    -0.015897  s :    -0.015897
      pz      :    -0.000559  p :    -0.002693
      px      :    -0.000417
      py      :    -0.001717
      dz2     :     0.000028  d :     0.000170
      dxz     :     0.000019
      dyz     :     0.000001
      dx2y2   :     0.000001
      dxy     :     0.000121
  4 H s       :    -0.002707  s :    -0.002707
      pz      :    -0.002551  p :    -0.000134
      px      :     0.000216
      py      :     0.002201
      dz2     :    -0.000001  d :    -0.000003
      dxz     :    -0.000002
      dyz     :    -0.000001
      dx2y2   :    -0.000002
      dxy     :     0.000003
  5 H s       :     0.850562  s :     0.850562
      pz      :     0.004572  p :     0.021046
      px      :     0.000024
      py      :     0.016450
      dz2     :     0.000003  d :     0.000057
      dxz     :     0.000000
      dyz     :     0.000029
      dx2y2   :     0.000025
      dxy     :     0.000001
  6 H s       :    -0.017286  s :    -0.017286
      pz      :    -0.000555  p :    -0.002701
      px      :    -0.000636
      py      :    -0.001511
      dz2     :     0.000028  d :     0.000162
      dxz     :     0.000020
      dyz     :    -0.000004
      dx2y2   :     0.000016
      dxy     :     0.000103
  7 N s       :     0.093443  s :     0.093443
      pz      :     0.015775  p :     0.072192
      px      :     0.005854
      py      :     0.050564
      dz2     :     0.000977  d :     0.006134
      dxz     :    -0.000052
      dyz     :     0.002812
      dx2y2   :     0.002489
      dxy     :    -0.000092
      f0      :    -0.000011  f :    -0.000025
      f+1     :    -0.000001
      f-1     :    -0.000006
      f+2     :     0.000020
      f-2     :    -0.000015
      f+3     :    -0.000002
      f-3     :    -0.000011


                     *******************************
                     * LOEWDIN POPULATION ANALYSIS *
                     *******************************

-------------------------------------------
LOEWDIN ATOMIC CHARGES AND SPIN POPULATIONS
-------------------------------------------
   0 H :   -0.017023    0.004377
   1 H :   -0.015893    0.004960
   2 C :    0.038587    0.016713
   3 H :   -0.104225    0.013251
   4 H :   -0.014820    0.003936
   5 H :    0.029039    0.756769
   6 H :   -0.103164    0.012643
   7 N :    0.187498    0.187351

----------------------------------------------------
LOEWDIN REDUCED ORBITAL CHARGES AND SPIN POPULATIONS
----------------------------------------------------
CHARGE
  0 H s       :     0.722132  s :     0.722132
      pz      :     0.072029  p :     0.267127
      px      :     0.076863
      py      :     0.118235
      dz2     :     0.005191  d :     0.027764
      dxz     :     0.002093
      dyz     :     0.007833
      dx2y2   :     0.005260
      dxy     :     0.007387
  1 H s       :     0.714530  s :     0.714530
      pz      :     0.063141  p :     0.272747
      px      :     0.111512
      py      :     0.098095
      dz2     :     0.003541  d :     0.028616
      dxz     :     0.005319
      dyz     :     0.003400
      dx2y2   :     0.008953
      dxy     :     0.007403
  2 C s       :     2.662119  s :     2.662119
      pz      :     0.797226  p :     2.665440
      px      :     0.938952
      py      :     0.929261
      dz2     :     0.157160  d :     0.589362
      dxz     :     0.116542
      dyz     :     0.209608
      dx2y2   :     0.039880
      dxy     :     0.066173
      f0      :     0.012501  f :     0.044492
      f+1     :     0.008795
      f-1     :     0.010242
      f+2     :     0.004806
      f-2     :     0.003224
      f+3     :     0.000315
      f-3     :     0.004609
  3 H s       :     0.656419  s :     0.656419
      pz      :     0.099984  p :     0.389631
      px      :     0.137016
      py      :     0.152632
      dz2     :     0.008161  d :     0.058175
      dxz     :     0.013319
      dyz     :     0.004758
      dx2y2   :     0.014568
      dxy     :     0.017368
  4 H s       :     0.714540  s :     0.714540
      pz      :     0.062814  p :     0.271657
      px      :     0.116541
      py      :     0.092301
      dz2     :     0.003595  d :     0.028623
      dxz     :     0.006132
      dyz     :     0.002636
      dx2y2   :     0.008500
      dxy     :     0.007759
  5 H s       :     0.860516  s :     0.860516
      pz      :     0.024705  p :     0.109068
      px      :     0.004792
      py      :     0.079571
      dz2     :     0.000070  d :     0.001376
      dxz     :     0.000011
      dyz     :     0.000659
      dx2y2   :     0.000608
      dxy     :     0.000029
  6 H s       :     0.656341  s :     0.656341
      pz      :     0.099478  p :     0.388666
      px      :     0.132532
      py      :     0.156656
      dz2     :     0.008054  d :     0.058158
      dxz     :     0.012562
      dyz     :     0.005462
      dx2y2   :     0.015611
      dxy     :     0.016469
  7 N s       :     2.903596  s :     2.903596
      pz      :     1.079399  p :     3.435739
      px      :     1.076619
      py      :     1.279720
      dz2     :     0.111539  d :     0.462498
      dxz     :     0.125700
      dyz     :     0.138497
      dx2y2   :     0.040514
      dxy     :     0.046248
      f0      :     0.002604  f :     0.010669
      f+1     :     0.002260
      f-1     :     0.001907
      f+2     :     0.000583
      f-2     :     0.001500
      f+3     :     0.000186
      f-3     :     0.001628

SPIN
  0 H s       :     0.001779  s :     0.001779
      pz      :     0.002400  p :     0.002545
      px      :    -0.000009
      py      :     0.000154
      dz2     :     0.000049  d :     0.000052
      dxz     :    -0.000001
      dyz     :    -0.000010
      dx2y2   :     0.000016
      dxy     :    -0.000001
  1 H s       :     0.000600  s :     0.000600
      pz      :     0.001869  p :     0.004413
      px      :     0.000052
      py      :     0.002493
      dz2     :    -0.000006  d :    -0.000052
      dxz     :    -0.000018
      dyz     :    -0.000011
      dx2y2   :    -0.000022
      dxy     :     0.000005
  2 C s       :     0.005299  s :     0.005299
      pz      :     0.000261  p :     0.000208
      px      :    -0.000230
      py      :     0.000178
      dz2     :     0.003422  d :     0.009878
      dxz     :    -0.000204
      dyz     :     0.005486
      dx2y2   :     0.001184
      dxy     :    -0.000010
      f0      :     0.000463  f :     0.001328
      f+1     :     0.000030
      f-1     :     0.000717
      f+2     :     0.000116
      f-2     :     0.000002
      f+3     :     0.000000
      f-3     :    -0.000000
  3 H s       :     0.000222  s :     0.000222
      pz      :     0.001525  p :     0.010492
      px      :     0.000813
      py      :     0.008155
      dz2     :     0.000434  d :     0.002536
      dxz     :     0.000285
      dyz     :     0.000054
      dx2y2   :     0.000239
      dxy     :     0.001524
  4 H s       :     0.000481  s :     0.000481
      pz      :     0.001440  p :     0.003504
      px      :     0.000086
      py      :     0.001977
      dz2     :    -0.000006  d :    -0.000049
      dxz     :    -0.000020
      dyz     :    -0.000005
      dx2y2   :    -0.000024
      dxy     :     0.000006
  5 H s       :     0.707880  s :     0.707880
      pz      :     0.011570  p :     0.048510
      px      :    -0.000023
      py      :     0.036963
      dz2     :     0.000011  d :     0.000379
      dxz     :    -0.000000
      dyz     :     0.000192
      dx2y2   :     0.000177
      dxy     :     0.000000
  6 H s       :     0.000062  s :     0.000062
      pz      :     0.001453  p :     0.010055
      px      :     0.000411
      py      :     0.008191
      dz2     :     0.000433  d :     0.002526
      dxz     :     0.000312
      dyz     :     0.000031
      dx2y2   :     0.000454
      dxy     :     0.001296
  7 N s       :     0.037867  s :     0.037867
      pz      :     0.019379  p :     0.094291
      px      :     0.003126
      py      :     0.071787
      dz2     :     0.004087  d :     0.055102
      dxz     :    -0.000217
      dyz     :     0.024142
      dx2y2   :     0.027547
      dxy     :    -0.000458
      f0      :     0.000080  f :     0.000092
      f+1     :    -0.000004
      f-1     :     0.000001
      f+2     :     0.000022
      f-2     :    -0.000026
      f+3     :     0.000006
      f-3     :     0.000013


                      *****************************
                      * MAYER POPULATION ANALYSIS *
                      *****************************

  NA   - Mulliken gross atomic population
  ZA   - Total nuclear charge
  QA   - Mulliken gross atomic charge
  VA   - Mayer's total valence
  BVA  - Mayer's bonded valence
  FA   - Mayer's free valence

  ATOM       NA         ZA         QA         VA         BVA        FA
  0 H      0.9153     1.0000     0.0847     1.0637     1.0638    -0.0000
  1 H      0.9236     1.0000     0.0764     1.0624     1.0624     0.0000
  2 C      6.1184     6.0000    -0.1184     3.9127     3.9126     0.0000
  3 H      0.8594     1.0000     0.1406     1.0272     1.0271     0.0001
  4 H      0.9249     1.0000     0.0751     1.0588     1.0588     0.0000
  5 H      1.0447     1.0000    -0.0447     1.0354     0.2676     0.7677
  6 H      0.8578     1.0000     0.1422     1.0254     1.0254     0.0001
  7 N      7.3559     7.0000    -0.3559     3.3733     3.3068     0.0665

  Mayer bond orders larger than 0.100000
B(  0-H ,  2-C ) :   1.0118 B(  1-H ,  2-C ) :   1.0140 B(  2-C ,  4-H ) :   1.0117 
B(  2-C ,  7-N ) :   0.8539 B(  3-H ,  7-N ) :   1.0419 B(  5-H ,  7-N ) :   0.3389 
B(  6-H ,  7-N ) :   1.0432 

-------
TIMINGS
-------

Total SCF time: 0 days 0 hours 0 min 5 sec 

Total time                  ....       5.557 sec
Sum of individual times     ....       5.283 sec  ( 95.1%)

Fock matrix formation       ....       4.790 sec  ( 86.2%)
  XC integration            ....       0.493 sec  ( 10.3% of F)
    Basis function eval.    ....       0.058 sec  ( 11.8% of XC)
    Density eval.           ....       0.081 sec  ( 16.4% of XC)
    XC-Functional eval.     ....       0.025 sec  (  5.0% of XC)
    XC-Potential eval.      ....       0.166 sec  ( 33.7% of XC)
Diagonalization             ....       0.091 sec  (  1.6%)
Density matrix formation    ....       0.015 sec  (  0.3%)
Population analysis         ....       0.010 sec  (  0.2%)
Initial guess               ....       0.120 sec  (  2.2%)
Orbital Transformation      ....       0.000 sec  (  0.0%)
Orbital Orthonormalization  ....       0.000 sec  (  0.0%)
DIIS solution               ....       0.030 sec  (  0.5%)
Grid generation             ....       0.227 sec  (  4.1%)

-------------------------   --------------------
FINAL SINGLE POINT ENERGY       -96.364626489598
-------------------------   --------------------


                            ***************************************
                            *     ORCA property calculations      *
                            ***************************************

                                    ---------------------
                                    Active property flags
                                    ---------------------
   (+) Dipole Moment


------------------------------------------------------------------------------
                       ORCA ELECTRIC PROPERTIES CALCULATION
------------------------------------------------------------------------------

Dipole Moment Calculation                       ... on
Quadrupole Moment Calculation                   ... off
Polarizability Calculation                      ... off
GBWName                                         ... 123.gbw
Electron density file                           ... 123.scfp
The origin for moment calculation is the CENTER OF MASS  = ( 0.001931, -0.194470 -0.006678)

-------------
DIPOLE MOMENT
-------------
                                X             Y             Z
Electronic contribution:     -0.00849      -1.67561       0.49920
Nuclear contribution   :     -0.00825       0.82489      -0.08847
                        -----------------------------------------
Total Dipole Moment    :     -0.01675      -0.85072       0.41074
                        -----------------------------------------
Magnitude (a.u.)       :      0.94484
Magnitude (Debye)      :      2.40158



--------------------
Rotational spectrum 
--------------------
 
Rotational constants in cm-1:     2.000356     0.660608     0.601270 
Rotational constants in MHz : 59969.149740 19804.516397 18025.616086 

 Dipole components along the rotational axes: 
x,y,z [a.u.] :     0.410738    -0.850724     0.016742 
x,y,z [Debye]:     1.044012    -2.162368     0.042555 

 

Timings for individual modules:

Sum of individual times         ...        6.830 sec (=   0.114 min)
GTO integral calculation        ...        0.815 sec (=   0.014 min)  11.9 %
SCF iterations                  ...        6.015 sec (=   0.100 min)  88.1 %
                             ****ORCA TERMINATED NORMALLY****
TOTAL RUN TIME: 0 days 0 hours 0 minutes 7 seconds 379 msec
