
                                 *****************
                                 * O   R   C   A *
                                 *****************

           --- An Ab Initio, DFT and Semiempirical electronic structure package ---

                  #######################################################
                  #                        -***-                        #
                  #          Department of theory and spectroscopy      #
                  #               Directorship: Frank Neese             #
                  #        Max Planck Institute fuer Kohlenforschung    #
                  #                Kaiser Wilhelm Platz 1               #
                  #                 D-45470 Muelheim/Ruhr               #
                  #                      Germany                        #
                  #                                                     #
                  #                  All rights reserved                #
                  #                        -***-                        #
                  #######################################################


                         Program Version 4.2.0 -  RELEASE  -


 With contributions from (in alphabetic order):
   Daniel Aravena         : Magnetic Suceptibility
   Michael Atanasov       : Ab Initio Ligand Field Theory (pilot matlab implementation)
   Alexander A. Auer      : GIAO ZORA, VPT2
   Ute Becker             : Parallelization
   Giovanni Bistoni       : ED, misc. LED, open-shell LED, HFLED
   Martin Brehm           : Molecular dynamics
   Dmytro Bykov           : SCF Hessian
   Vijay G. Chilkuri      : MRCI spin determinant printing, contributions to CSF-ICE
   Dipayan Datta          : RHF DLPNO-CCSD density
   Achintya Kumar Dutta   : EOM-CC, STEOM-CC
   Dmitry Ganyushin       : Spin-Orbit,Spin-Spin,Magnetic field MRCI
   Miquel Garcia          : C-PCM Hessian, Gaussian charge scheme
   Yang Guo               : DLPNO-NEVPT2, CIM, IAO-localization
   Andreas Hansen         : Spin unrestricted coupled pair/coupled cluster methods
   Benjamin Helmich-Paris : CASSCF linear response (MC-RPA)
   Lee Huntington         : MR-EOM, pCC
   Robert Izsak           : Overlap fitted RIJCOSX, COSX-SCS-MP3, EOM
   Christian Kollmar      : KDIIS, OOCD, Brueckner-CCSD(T), CCSD density
   Simone Kossmann        : Meta GGA functionals, TD-DFT gradient, OOMP2, MP2 Hessian
   Martin Krupicka        : AUTO-CI
   Lucas Lang             : DCDCAS
   Dagmar Lenk            : GEPOL surface, SMD
   Dimitrios Liakos       : Extrapolation schemes; Compound Job, initial MDCI parallelization
   Dimitrios Manganas     : Further ROCIS development; embedding schemes
   Dimitrios Pantazis     : SARC Basis sets
   Taras Petrenko         : DFT Hessian,TD-DFT gradient, ASA, ECA, R-Raman, ABS, FL, XAS/XES, NRVS
   Peter Pinski           : DLPNO-MP2, DLPNO-MP2 Gradient
   Christoph Reimann      : Effective Core Potentials
   Marius Retegan         : Local ZFS, SOC
   Christoph Riplinger    : Optimizer, TS searches, QM/MM, DLPNO-CCSD(T), (RO)-DLPNO pert. Triples
   Tobias Risthaus        : Range-separated hybrids, TD-DFT gradient, RPA, STAB
   Michael Roemelt        : Original ROCIS implementation
   Masaaki Saitow         : Open-shell DLPNO-CCSD energy and density
   Barbara Sandhoefer     : DKH picture change effects
   Avijit Sen             : IP-ROCIS
   Kantharuban Sivalingam : CASSCF convergence, NEVPT2, FIC-MRCI
   Bernardo de Souza      : ESD, SOC TD-DFT
   Georgi Stoychev        : AutoAux, RI-MP2 NMR
   Willem Van den Heuvel  : Paramagnetic NMR
   Boris Wezisla          : Elementary symmetry handling
   Frank Wennmohs         : Technical directorship


 We gratefully acknowledge several colleagues who have allowed us to
 interface, adapt or use parts of their codes:
   Stefan Grimme, W. Hujo, H. Kruse,             : VdW corrections, initial TS optimization,
                  C. Bannwarth                     DFT functionals, gCP, sTDA/sTD-DF
   Ed Valeev, F. Pavosevic, A. Kumar             : LibInt (2-el integral package), F12 methods
   Garnet Chan, S. Sharma, J. Yang, R. Olivares  : DMRG
   Ulf Ekstrom                                   : XCFun DFT Library
   Mihaly Kallay                                 : mrcc  (arbitrary order and MRCC methods)
   Andreas Klamt, Michael Diedenhofen            : otool_cosmo (COSMO solvation model)
   Jiri Pittner, Ondrej Demel                    : Mk-CCSD
   Frank Weinhold                                : gennbo (NPA and NBO analysis)
   Christopher J. Cramer and Donald G. Truhlar   : smd solvation model
   Lars Goerigk                                  : TD-DFT with DH, B97 family of functionals
   V. Asgeirsson, H. Jonsson                     : NEB implementation
   FAccTs GmbH                                   : IRC, NEB, NEB-TS, Multilevel, MM, QM/MM, CI optimization
   S Lehtola, MJT Oliveira, MAL Marques          : LibXC Library


 Your calculation uses the libint2 library for the computation of 2-el integrals
 For citations please refer to: http://libint.valeyev.net

 Your ORCA version has been built with support for libXC version: 4.2.3
 For citations please refer to: https://tddft.org/programs/libxc/

 This ORCA versions uses:
   CBLAS   interface :  Fast vector & matrix operations
   LAPACKE interface :  Fast linear algebra routines
   SCALAPACK package :  Parallel linear algebra routines


Your calculation utilizes the DFT-NL dispersion correction.
Cite in your paper:
Vydrov, O. A.; Van Voorhis, T. J. Chem. Phys. 2010, 133, 244103
Hujo, W.; Grimme, S. J. Chem. Theory Comput. 2011, 7, 3866 
   

----- Orbital basis set information -----
Your calculation utilizes the basis: def2-TZVPPD
   F. Weigend and R. Ahlrichs, Phys. Chem. Chem. Phys. 7, 3297 (2005).
   D. Rappoport and F. Furche, J. Chem. Phys. 133 134105 (2010).

----- AuxJK basis set information -----
Your calculation utilizes the auxiliary basis: def2/JK
   H-Ba, Hf-Rn: F. Weigend, J. Comput. Chem. 29, 167 (2008).

================================================================================
                                        WARNINGS
                       Please study these warnings very carefully!
================================================================================


INFO   : the flag for use of LIBINT has been found!

================================================================================
                                       INPUT FILE
================================================================================
NAME = 167_li.in
|  1> #
|  2> # 167_li wB97X-V/Def2-TZVPPD
|  3> #
|  4> ! wb97x-v def2-tzvppd def2/jk grid4 nofinalgrid
|  5> 
|  6> *xyz 0 1
|  7> Li         0.00000        0.00000        0.80730
|  8> H          0.00000        0.00000       -0.80730
|  9> *
| 10> 
| 11> %maxcore 5000
| 12> 
| 13> %pal
| 14> nprocs = 24
| 15> end
| 16> 
| 17> 
| 18>                          ****END OF INPUT****
================================================================================

                       ****************************
                       * Single Point Calculation *
                       ****************************

---------------------------------
CARTESIAN COORDINATES (ANGSTROEM)
---------------------------------
  Li     0.000000    0.000000    0.807300
  H      0.000000    0.000000   -0.807300

----------------------------
CARTESIAN COORDINATES (A.U.)
----------------------------
  NO LB      ZA    FRAG     MASS         X           Y           Z
   0 Li    3.0000    0     6.941    0.000000    0.000000    1.525576
   1 H     1.0000    0     1.008    0.000000    0.000000   -1.525576

--------------------------------
INTERNAL COORDINATES (ANGSTROEM)
--------------------------------
 Li     0   0   0     0.000000000000     0.00000000     0.00000000
 H      1   0   0     1.614600000000     0.00000000     0.00000000

---------------------------
INTERNAL COORDINATES (A.U.)
---------------------------
 Li     0   0   0     0.000000000000     0.00000000     0.00000000
 H      1   0   0     3.051151815829     0.00000000     0.00000000

---------------------
BASIS SET INFORMATION
---------------------
There are 2 groups of distinct atoms

 Group   1 Type Li  : 11s4p1d contracted to 5s4p1d pattern {62111/1111/1}
 Group   2 Type H   : 5s3p1d contracted to 3s3p1d pattern {311/111/1}

Atom   0Li   basis set group =>   1
Atom   1H    basis set group =>   2
----------------------------------
AUXILIARY/JK BASIS SET INFORMATION
----------------------------------
There are 2 groups of distinct atoms

 Group   1 Type Li  : 10s7p4d2f contracted to 7s5p3d2f pattern {4111111/31111/211/11}
 Group   2 Type H   : 4s2p2d contracted to 2s2p2d pattern {31/11/11}

Atom   0Li   basis set group =>   1
Atom   1H    basis set group =>   2


           ************************************************************
           *        Program running with 24 parallel MPI-processes    *
           *              working on a common directory               *
           ************************************************************
------------------------------------------------------------------------------
                           ORCA GTO INTEGRAL CALCULATION
------------------------------------------------------------------------------

                         BASIS SET STATISTICS AND STARTUP INFO

 # of primitive gaussian shells          ...   25
 # of primitive gaussian functions       ...   47
 # of contracted shells                  ...   17
 # of contracted basis functions         ...   39
 Highest angular momentum                ...    2
 Maximum contraction depth               ...    6
 Integral package used                   ... LIBINT
 Integral threshhold            Thresh   ...  1.000e-10
 Primitive cut-off              TCut     ...  1.000e-11


------------------------------ INTEGRAL EVALUATION ----------------------------


 * One electron integrals 
 Pre-screening matrix                    ... done
 Shell pair data                         ... done (   0.000 sec)



           ************************************************************
           *        Program running with 24 parallel MPI-processes    *
           *              working on a common directory               *
           ************************************************************
-------------------------------------------------------------------------------
                                 ORCA SCF
-------------------------------------------------------------------------------

------------
SCF SETTINGS
------------
Hamiltonian:
 Density Functional     Method          .... DFT(GTOs)
 Exchange Functional    Exchange        .... WB97X-V
 Correlation Functional Correlation     .... WB97X-V
 Gradients option       PostSCFGGA      .... off
 Hybrid DFT is turned on
   Fraction HF Exchange ScalHFX         ....  0.167000
   Scaling of DF-GGA-X  ScalDFX         ....  0.000000
   Scaling of DF-GGA-C  ScalDFC         ....  1.000000
   Scaling of DF-LDA-C  ScalLDAC        ....  1.000000
   Perturbative correction              ....  0.000000
   Density functional embedding theory  .... OFF
 Long-range corrected/Screened/Range-Separated Hybrid DFT is turned on
   Amount of maximum screened exact exchange              ....  0.833000
   Range separation parameter mu (erf(mu*r12)/r12)        ....  0.300000
   NL short-range parameter             ....  6.000000
   NL long-range parameter              ....  0.010000


General Settings:
 Integral files         IntName         .... 167_li
 Hartree-Fock type      HFTyp           .... RHF
 Total Charge           Charge          ....    0
 Multiplicity           Mult            ....    1
 Number of Electrons    NEL             ....    4
 Basis Dimension        Dim             ....   39
 Nuclear Repulsion      ENuc            ....      0.9832352440 Eh

Convergence Acceleration:
 DIIS                   CNVDIIS         .... on
   Start iteration      DIISMaxIt       ....    12
   Startup error        DIISStart       ....  0.200000
   # of expansion vecs  DIISMaxEq       ....     5
   Bias factor          DIISBfac        ....   1.050
   Max. coefficient     DIISMaxC        ....  10.000
 Newton-Raphson         CNVNR           .... off
 SOSCF                  CNVSOSCF        .... on
   Start iteration      SOSCFMaxIt      ....   150
   Startup grad/error   SOSCFStart      ....  0.003300
 Level Shifting         CNVShift        .... on
   Level shift para.    LevelShift      ....    0.2500
   Turn off err/grad.   ShiftErr        ....    0.0010
 Zerner damping         CNVZerner       .... off
 Static damping         CNVDamp         .... on
   Fraction old density DampFac         ....    0.7000
   Max. Damping (<1)    DampMax         ....    0.9800
   Min. Damping (>=0)   DampMin         ....    0.0000
   Turn off err/grad.   DampErr         ....    0.1000
 Fernandez-Rico         CNVRico         .... off

SCF Procedure:
 Maximum # iterations   MaxIter         ....   125
 SCF integral mode      SCFMode         .... Direct
   Integral package                     .... LIBINT
 Reset frequency        DirectResetFreq ....    20
 Integral Threshold     Thresh          ....  1.000e-10 Eh
 Primitive CutOff       TCut            ....  1.000e-11 Eh

Convergence Tolerance:
 Convergence Check Mode ConvCheckMode   .... Total+1el-Energy
 Convergence forced     ConvForced      .... 0
 Energy Change          TolE            ....  1.000e-06 Eh
 1-El. energy change                    ....  1.000e-03 Eh
 Orbital Gradient       TolG            ....  5.000e-05
 Orbital Rotation angle TolX            ....  5.000e-05
 DIIS Error             TolErr          ....  1.000e-06


Diagonalization of the overlap matrix:
Smallest eigenvalue                        ... 5.987e-03
Time for diagonalization                   ...    0.001 sec
Threshold for overlap eigenvalues          ... 1.000e-08
Number of eigenvalues below threshold      ... 0
Time for construction of square roots      ...    0.001 sec
Total time needed                          ...    0.002 sec

-------------------
DFT GRID GENERATION
-------------------

General Integration Accuracy     IntAcc      ...  4.670
Radial Grid Type                 RadialGrid  ... Gauss-Chebyshev
Angular Grid (max. acc.)         AngularGrid ... Lebedev-302
Angular grid pruning method      GridPruning ... 3 (G Style)
Weight generation scheme         WeightScheme... Becke
Basis function cutoff            BFCut       ...    1.0000e-10
Integration weight cutoff        WCut        ...    1.0000e-14
Grids for H and He will be reduced by one unit

# of grid points (after initial pruning)     ...   9270 (   0.0 sec)
# of grid points (after weights+screening)   ...   9227 (   0.0 sec)
nearest neighbour list constructed           ...    0.0 sec
Grid point re-assignment to atoms done       ...    0.0 sec
Grid point division into batches done        ...    0.0 sec
Reduced shell lists constructed in    0.0 sec

Total number of grid points                  ...     9227
Total number of batches                      ...      145
Average number of points per batch           ...       63
Average number of grid points per atom       ...     4614
Average number of shells per batch           ...     2.75 (16.18%)
Average number of basis functions per batch  ...     6.00 (15.38%)
Average number of large shells per batch     ...     1.88 (68.18%)
Average number of large basis fcns per batch ...     4.12 (68.75%)
Maximum spatial batch extension              ...  43.84, 39.87, 24.07 au
Average spatial batch extension              ...   1.69,  1.41,  1.03 au

Time for grid setup =    0.058 sec

------------------------------
INITIAL GUESS: MODEL POTENTIAL
------------------------------
Loading Hartree-Fock densities                     ... done
Calculating cut-offs                               ... done
Setting up the integral package                    ... done
Initializing the effective Hamiltonian             ... done
Starting the Coulomb interaction                   ... done (   0.0 sec)
Reading the grid                                   ... done
Mapping shells                                     ... done
Starting the XC term evaluation                    ... done (   0.0 sec)
  promolecular density results
     # of electrons  =      3.999523614
     EX              =     -1.212958479
     EC              =     -0.108406792
     EX+EC           =     -1.321365271
Transforming the Hamiltonian                       ... done (   0.0 sec)
Diagonalizing the Hamiltonian                      ... done (   0.0 sec)
Back transforming the eigenvectors                 ... done (   0.0 sec)
Now organizing SCF variables                       ... done
                      ------------------
                      INITIAL GUESS DONE (   0.2 sec)
                      ------------------
--------------
SCF ITERATIONS
--------------
ITER       Energy         Delta-E        Max-DP      RMS-DP      [F,P]     Damp
               ***  Starting incremental Fock matrix formation  ***
  0     -8.0750011481   0.000000000000 0.01837046  0.00099924  0.2116256 0.7000
  1     -8.0788028581  -0.003801710040 0.01525992  0.00085959  0.1439413 0.7000
                               ***Turning on DIIS***
  2     -8.0815579855  -0.002755127410 0.03869711  0.00214700  0.0951778 0.0000
  3     -8.0879465917  -0.006388606166 0.00785238  0.00036962  0.0131602 0.0000
  4     -8.0880843360  -0.000137744297 0.00714965  0.00032902  0.0047658 0.0000
                      *** Initiating the SOSCF procedure ***
                           *** Shutting down DIIS ***
                      *** Re-Reading the Fockian *** 
                      *** Removing any level shift *** 
ITER      Energy       Delta-E        Grad      Rot      Max-DP    RMS-DP
  5     -8.08815244  -0.0000681076  0.002072  0.002072  0.005359  0.000252
               *** Restarting incremental Fock matrix formation ***
  6     -8.08818195  -0.0000295066  0.000849  0.002955  0.002558  0.000125
  7     -8.08819159  -0.0000096374  0.000420  0.003106  0.002601  0.000131
  8     -8.08819523  -0.0000036396  0.000028  0.000078  0.000097  0.000005
                 **** Energy Check signals convergence ****
              ***Rediagonalizing the Fockian in SOSCF/NRSCF***

               *****************************************************
               *                     SUCCESS                       *
               *           SCF CONVERGED AFTER   9 CYCLES          *
               *****************************************************


Setting up the DFT-NL grid :

General Integration Accuracy     IntAcc      ...  4.340
Radial Grid Type                 RadialGrid  ... Gauss-Chebyshev
Angular Grid (max. acc.)         AngularGrid ... Lebedev-110
Angular grid pruning method      GridPruning ... 3 (G Style)
Weight generation scheme         WeightScheme... Becke
Basis function cutoff            BFCut       ...    1.0000e-10
Integration weight cutoff        WCut        ...    1.0000e-14
Grids for H and He will be reduced by one unit

# of grid points (after initial pruning)     ...   2434 (   0.0 sec)
# of grid points (after weights+screening)   ...   2410 (   0.0 sec)
nearest neighbour list constructed           ...    0.0 sec
Grid point re-assignment to atoms done       ...    0.0 sec
Grid point division into batches done        ...    0.0 sec
Reduced shell lists constructed in    0.0 sec

Total number of grid points                  ...     2410
Total number of batches                      ...       39
Average number of points per batch           ...       61
Average number of grid points per atom       ...     1205
Average number of shells per batch           ...     6.67 (39.22%)
Average number of basis functions per batch  ...    16.00 (41.03%)
Average number of large shells per batch     ...     4.67 (70.00%)
Average number of large basis fcns per batch ...    11.33 (70.83%)
Maximum spatial batch extension              ...  29.22, 51.31, 27.01 au
Average spatial batch extension              ...   1.50,  2.63,  1.39 au

Final grid set up in    0.0 sec

-------------------------------------------------------------------------------
                         DFT-NL dispersion correction                          
-------------------------------------------------------------------------------

SC Energy -8.088195237 
NL    Energy 0.017747132 
SC+NL Energy -8.070448105 
NL done in    0.0 sec
-------------------------------------------------------------------------------

----------------
TOTAL SCF ENERGY
----------------

Total Energy       :           -8.07044810 Eh            -219.60806 eV

Components:
Nuclear Repulsion  :            0.98323524 Eh              26.75519 eV
Electronic Energy  :           -9.05368335 Eh            -246.36325 eV
One Electron Energy:          -12.43767691 Eh            -338.44640 eV
Two Electron Energy:            3.38399356 Eh              92.08315 eV

Virial components:
Potential Energy   :          -16.07734617 Eh            -437.48683 eV
Kinetic Energy     :            8.00689806 Eh             217.87877 eV
Virial Ratio       :            2.00793691


DFT components:
N(Alpha)           :        2.000012702432 electrons
N(Beta)            :        2.000012702432 electrons
N(Total)           :        4.000025404864 electrons
E(X)               :       -1.267792176907 Eh       
E(C)               :       -0.117190179152 Eh       
NL Energy, E(C,NL) :        0.017747132186 Eh       
E(XC)              :       -1.367235223873 Eh       
DFET-embed. en.    :        0.000000000000 Eh       

---------------
SCF CONVERGENCE
---------------

  Last Energy change         ...   -9.6894e-09  Tolerance :   1.0000e-06
  Last MAX-Density change    ...    4.4612e-05  Tolerance :   1.0000e-05
  Last RMS-Density change    ...    2.1230e-06  Tolerance :   1.0000e-06
  Last Orbital Gradient      ...    9.1502e-06  Tolerance :   5.0000e-05
  Last Orbital Rotation      ...    3.7912e-05  Tolerance :   5.0000e-05

             **** THE GBW FILE WAS UPDATED (167_li.gbw) ****
             **** DENSITY FILE WAS UPDATED (167_li.scfp) ****
             **** ENERGY FILE WAS UPDATED (167_li.en.tmp) ****
             **** THE GBW FILE WAS UPDATED (167_li.gbw) ****
             **** DENSITY FILE WAS UPDATED (167_li.scfp) ****
----------------
ORBITAL ENERGIES
----------------

  NO   OCC          E(Eh)            E(eV) 
   0   2.0000      -2.114579       -57.5406 
   1   2.0000      -0.291096        -7.9211 
   2   0.0000      -0.003506        -0.0954 
   3   0.0000       0.033098         0.9006 
   4   0.0000       0.033098         0.9006 
   5   0.0000       0.068072         1.8523 
   6   0.0000       0.116944         3.1822 
   7   0.0000       0.116944         3.1822 
   8   0.0000       0.126013         3.4290 
   9   0.0000       0.205813         5.6004 
  10   0.0000       0.267151         7.2695 
  11   0.0000       0.267151         7.2695 
  12   0.0000       0.287331         7.8187 
  13   0.0000       0.366888         9.9835 
  14   0.0000       0.366888         9.9835 
  15   0.0000       0.448389        12.2013 
  16   0.0000       0.475719        12.9450 
  17   0.0000       0.475719        12.9450 
  18   0.0000       0.635349        17.2887 
  19   0.0000       0.635349        17.2887 
  20   0.0000       0.642572        17.4853 
  21   0.0000       0.784777        21.3549 
  22   0.0000       1.055887        28.7321 
  23   0.0000       1.055887        28.7321 
  24   0.0000       1.186635        32.2900 
  25   0.0000       1.627159        44.2773 
  26   0.0000       2.754736        74.9602 
  27   0.0000       3.438153        93.5569 
  28   0.0000       3.438277        93.5603 
  29   0.0000       3.481672        94.7411 
  30   0.0000       3.481672        94.7411 
  31   0.0000       3.636010        98.9409 
  32   0.0000       4.043694       110.0345 
  33   0.0000       4.043694       110.0345 
  34   0.0000       4.218310       114.7860 
  35   0.0000       5.944433       161.7562 
  36   0.0000       5.944433       161.7562 
  37   0.0000       6.218519       169.2145 
  38   0.0000      14.278655       388.5420 

                    ********************************
                    * MULLIKEN POPULATION ANALYSIS *
                    ********************************

-----------------------
MULLIKEN ATOMIC CHARGES
-----------------------
   0 Li:    0.602050
   1 H :   -0.602050
Sum of atomic charges:   -0.0000000

--------------------------------
MULLIKEN REDUCED ORBITAL CHARGES
--------------------------------
  0 Lis       :     2.266577  s :     2.266577
      pz      :     0.136498  p :     0.136498
      px      :     0.000000
      py      :     0.000000
      dz2     :    -0.005124  d :    -0.005124
      dxz     :    -0.000000
      dyz     :     0.000000
      dx2y2   :     0.000000
      dxy     :     0.000000
  1 H s       :     1.584155  s :     1.584155
      pz      :     0.017790  p :     0.017790
      px      :     0.000000
      py      :    -0.000000
      dz2     :     0.000104  d :     0.000104
      dxz     :    -0.000000
      dyz     :    -0.000000
      dx2y2   :     0.000000
      dxy     :     0.000000


                     *******************************
                     * LOEWDIN POPULATION ANALYSIS *
                     *******************************

----------------------
LOEWDIN ATOMIC CHARGES
----------------------
   0 Li:    0.299876
   1 H :   -0.299876

-------------------------------
LOEWDIN REDUCED ORBITAL CHARGES
-------------------------------
  0 Lis       :     2.397548  s :     2.397548
      pz      :     0.262778  p :     0.262778
      px      :     0.000000
      py      :     0.000000
      dz2     :     0.039798  d :     0.039798
      dxz     :     0.000000
      dyz     :     0.000000
      dx2y2   :     0.000000
      dxy     :     0.000000
  1 H s       :     1.267227  s :     1.267227
      pz      :     0.032366  p :     0.032366
      px      :     0.000000
      py      :     0.000000
      dz2     :     0.000282  d :     0.000282
      dxz     :     0.000000
      dyz     :     0.000000
      dx2y2   :     0.000000
      dxy     :     0.000000


                      *****************************
                      * MAYER POPULATION ANALYSIS *
                      *****************************

  NA   - Mulliken gross atomic population
  ZA   - Total nuclear charge
  QA   - Mulliken gross atomic charge
  VA   - Mayer's total valence
  BVA  - Mayer's bonded valence
  FA   - Mayer's free valence

  ATOM       NA         ZA         QA         VA         BVA        FA
  0 Li     2.3980     3.0000     0.6020     0.6405     0.6405    -0.0000
  1 H      1.6020     1.0000    -0.6020     0.6405     0.6405    -0.0000

  Mayer bond orders larger than 0.100000
B(  0-Li,  1-H ) :   0.6405 

-------
TIMINGS
-------

Total SCF time: 0 days 0 hours 0 min 1 sec 

Total time                  ....       1.452 sec
Sum of individual times     ....       1.264 sec  ( 87.0%)

Fock matrix formation       ....       1.085 sec  ( 74.7%)
  XC integration            ....       0.056 sec  (  5.2% of F)
    Basis function eval.    ....       0.004 sec  (  7.5% of XC)
    Density eval.           ....       0.003 sec  (  5.8% of XC)
    XC-Functional eval.     ....       0.007 sec  ( 11.9% of XC)
    XC-Potential eval.      ....       0.002 sec  (  2.8% of XC)
Diagonalization             ....       0.002 sec  (  0.1%)
Density matrix formation    ....       0.001 sec  (  0.1%)
Population analysis         ....       0.002 sec  (  0.1%)
Initial guess               ....       0.108 sec  (  7.4%)
Orbital Transformation      ....       0.000 sec  (  0.0%)
Orbital Orthonormalization  ....       0.000 sec  (  0.0%)
DIIS solution               ....       0.002 sec  (  0.1%)
SOSCF solution              ....       0.001 sec  (  0.1%)
Grid generation             ....       0.064 sec  (  4.4%)

-------------------------   --------------------
FINAL SINGLE POINT ENERGY        -8.070448104567
-------------------------   --------------------


                            ***************************************
                            *     ORCA property calculations      *
                            ***************************************

                                    ---------------------
                                    Active property flags
                                    ---------------------
   (+) Dipole Moment


------------------------------------------------------------------------------
                       ORCA ELECTRIC PROPERTIES CALCULATION
------------------------------------------------------------------------------

Dipole Moment Calculation                       ... on
Quadrupole Moment Calculation                   ... off
Polarizability Calculation                      ... off
GBWName                                         ... 167_li.gbw
Electron density file                           ... 167_li.scfp
The origin for moment calculation is the CENTER OF MASS  = ( 0.000000,  0.000000  1.138664)

-------------
DIPOLE MOMENT
-------------
                                X             Y             Z
Electronic contribution:     -0.00000      -0.00000       3.80779
Nuclear contribution   :      0.00000       0.00000      -1.50351
                        -----------------------------------------
Total Dipole Moment    :     -0.00000      -0.00000       2.30428
                        -----------------------------------------
Magnitude (a.u.)       :      2.30428
Magnitude (Debye)      :      5.85702



--------------------
Rotational spectrum 
--------------------
 
Rotational constants in cm-1:     0.000000     7.346778     7.346778 
Rotational constants in MHz :     0.000000 220250.867747 220250.867747 

 Dipole components along the rotational axes: 
x,y,z [a.u.] :     2.304281    -0.000000    -0.000000 
x,y,z [Debye]:     5.857016    -0.000000    -0.000000 

 

Timings for individual modules:

Sum of individual times         ...        2.540 sec (=   0.042 min)
GTO integral calculation        ...        0.705 sec (=   0.012 min)  27.8 %
SCF iterations                  ...        1.834 sec (=   0.031 min)  72.2 %
                             ****ORCA TERMINATED NORMALLY****
TOTAL RUN TIME: 0 days 0 hours 0 minutes 2 seconds 959 msec
