
                                 *****************
                                 * O   R   C   A *
                                 *****************

           --- An Ab Initio, DFT and Semiempirical electronic structure package ---

                  #######################################################
                  #                        -***-                        #
                  #          Department of theory and spectroscopy      #
                  #               Directorship: Frank Neese             #
                  #        Max Planck Institute fuer Kohlenforschung    #
                  #                Kaiser Wilhelm Platz 1               #
                  #                 D-45470 Muelheim/Ruhr               #
                  #                      Germany                        #
                  #                                                     #
                  #                  All rights reserved                #
                  #                        -***-                        #
                  #######################################################


                         Program Version 4.2.0 -  RELEASE  -


 With contributions from (in alphabetic order):
   Daniel Aravena         : Magnetic Suceptibility
   Michael Atanasov       : Ab Initio Ligand Field Theory (pilot matlab implementation)
   Alexander A. Auer      : GIAO ZORA, VPT2
   Ute Becker             : Parallelization
   Giovanni Bistoni       : ED, misc. LED, open-shell LED, HFLED
   Martin Brehm           : Molecular dynamics
   Dmytro Bykov           : SCF Hessian
   Vijay G. Chilkuri      : MRCI spin determinant printing, contributions to CSF-ICE
   Dipayan Datta          : RHF DLPNO-CCSD density
   Achintya Kumar Dutta   : EOM-CC, STEOM-CC
   Dmitry Ganyushin       : Spin-Orbit,Spin-Spin,Magnetic field MRCI
   Miquel Garcia          : C-PCM Hessian, Gaussian charge scheme
   Yang Guo               : DLPNO-NEVPT2, CIM, IAO-localization
   Andreas Hansen         : Spin unrestricted coupled pair/coupled cluster methods
   Benjamin Helmich-Paris : CASSCF linear response (MC-RPA)
   Lee Huntington         : MR-EOM, pCC
   Robert Izsak           : Overlap fitted RIJCOSX, COSX-SCS-MP3, EOM
   Christian Kollmar      : KDIIS, OOCD, Brueckner-CCSD(T), CCSD density
   Simone Kossmann        : Meta GGA functionals, TD-DFT gradient, OOMP2, MP2 Hessian
   Martin Krupicka        : AUTO-CI
   Lucas Lang             : DCDCAS
   Dagmar Lenk            : GEPOL surface, SMD
   Dimitrios Liakos       : Extrapolation schemes; Compound Job, initial MDCI parallelization
   Dimitrios Manganas     : Further ROCIS development; embedding schemes
   Dimitrios Pantazis     : SARC Basis sets
   Taras Petrenko         : DFT Hessian,TD-DFT gradient, ASA, ECA, R-Raman, ABS, FL, XAS/XES, NRVS
   Peter Pinski           : DLPNO-MP2, DLPNO-MP2 Gradient
   Christoph Reimann      : Effective Core Potentials
   Marius Retegan         : Local ZFS, SOC
   Christoph Riplinger    : Optimizer, TS searches, QM/MM, DLPNO-CCSD(T), (RO)-DLPNO pert. Triples
   Tobias Risthaus        : Range-separated hybrids, TD-DFT gradient, RPA, STAB
   Michael Roemelt        : Original ROCIS implementation
   Masaaki Saitow         : Open-shell DLPNO-CCSD energy and density
   Barbara Sandhoefer     : DKH picture change effects
   Avijit Sen             : IP-ROCIS
   Kantharuban Sivalingam : CASSCF convergence, NEVPT2, FIC-MRCI
   Bernardo de Souza      : ESD, SOC TD-DFT
   Georgi Stoychev        : AutoAux, RI-MP2 NMR
   Willem Van den Heuvel  : Paramagnetic NMR
   Boris Wezisla          : Elementary symmetry handling
   Frank Wennmohs         : Technical directorship


 We gratefully acknowledge several colleagues who have allowed us to
 interface, adapt or use parts of their codes:
   Stefan Grimme, W. Hujo, H. Kruse,             : VdW corrections, initial TS optimization,
                  C. Bannwarth                     DFT functionals, gCP, sTDA/sTD-DF
   Ed Valeev, F. Pavosevic, A. Kumar             : LibInt (2-el integral package), F12 methods
   Garnet Chan, S. Sharma, J. Yang, R. Olivares  : DMRG
   Ulf Ekstrom                                   : XCFun DFT Library
   Mihaly Kallay                                 : mrcc  (arbitrary order and MRCC methods)
   Andreas Klamt, Michael Diedenhofen            : otool_cosmo (COSMO solvation model)
   Jiri Pittner, Ondrej Demel                    : Mk-CCSD
   Frank Weinhold                                : gennbo (NPA and NBO analysis)
   Christopher J. Cramer and Donald G. Truhlar   : smd solvation model
   Lars Goerigk                                  : TD-DFT with DH, B97 family of functionals
   V. Asgeirsson, H. Jonsson                     : NEB implementation
   FAccTs GmbH                                   : IRC, NEB, NEB-TS, Multilevel, MM, QM/MM, CI optimization
   S Lehtola, MJT Oliveira, MAL Marques          : LibXC Library


 Your calculation uses the libint2 library for the computation of 2-el integrals
 For citations please refer to: http://libint.valeyev.net

 Your ORCA version has been built with support for libXC version: 4.2.3
 For citations please refer to: https://tddft.org/programs/libxc/

 This ORCA versions uses:
   CBLAS   interface :  Fast vector & matrix operations
   LAPACKE interface :  Fast linear algebra routines
   SCALAPACK package :  Parallel linear algebra routines


Your calculation utilizes the DFT-NL dispersion correction.
Cite in your paper:
Vydrov, O. A.; Van Voorhis, T. J. Chem. Phys. 2010, 133, 244103
Hujo, W.; Grimme, S. J. Chem. Theory Comput. 2011, 7, 3866 
   

----- Orbital basis set information -----
Your calculation utilizes the basis: def2-TZVPPD
   F. Weigend and R. Ahlrichs, Phys. Chem. Chem. Phys. 7, 3297 (2005).
   D. Rappoport and F. Furche, J. Chem. Phys. 133 134105 (2010).

----- AuxJK basis set information -----
Your calculation utilizes the auxiliary basis: def2/JK
   H-Ba, Hf-Rn: F. Weigend, J. Comput. Chem. 29, 167 (2008).

================================================================================
                                        WARNINGS
                       Please study these warnings very carefully!
================================================================================


INFO   : the flag for use of LIBINT has been found!

================================================================================
                                       INPUT FILE
================================================================================
NAME = 169_b.in
|  1> #
|  2> # 169_b wB97X-V/Def2-TZVPPD
|  3> #
|  4> ! wb97x-v def2-tzvppd def2/jk grid4 nofinalgrid
|  5> 
|  6> *xyz 0 1
|  7> B          0.00000        0.00000        0.00000
|  8> H          0.60006        1.03933        0.00000
|  9> H          0.60006       -1.03933        0.00000
| 10> H         -1.20012        0.00000        0.00000
| 11> *
| 12> 
| 13> %maxcore 5000
| 14> 
| 15> %pal
| 16> nprocs = 24
| 17> end
| 18> 
| 19> 
| 20>                          ****END OF INPUT****
================================================================================

                       ****************************
                       * Single Point Calculation *
                       ****************************

---------------------------------
CARTESIAN COORDINATES (ANGSTROEM)
---------------------------------
  B      0.000000    0.000000    0.000000
  H      0.600060    1.039330    0.000000
  H      0.600060   -1.039330    0.000000
  H     -1.200120    0.000000    0.000000

----------------------------
CARTESIAN COORDINATES (A.U.)
----------------------------
  NO LB      ZA    FRAG     MASS         X           Y           Z
   0 B     5.0000    0    10.810    0.000000    0.000000    0.000000
   1 H     1.0000    0     1.008    1.133949    1.964049    0.000000
   2 H     1.0000    0     1.008    1.133949   -1.964049    0.000000
   3 H     1.0000    0     1.008   -2.267898    0.000000    0.000000

--------------------------------
INTERNAL COORDINATES (ANGSTROEM)
--------------------------------
 B      0   0   0     0.000000000000     0.00000000     0.00000000
 H      1   0   0     1.200116182917     0.00000000     0.00000000
 H      1   2   0     1.200116182917   119.99978957     0.00000000
 H      1   2   3     1.200120000000   120.00010521   180.00000000

---------------------------
INTERNAL COORDINATES (A.U.)
---------------------------
 B      0   0   0     0.000000000000     0.00000000     0.00000000
 H      1   0   0     2.267890914601     0.00000000     0.00000000
 H      1   2   0     2.267890914601   119.99978957     0.00000000
 H      1   2   3     2.267898127842   120.00010521   180.00000000

---------------------
BASIS SET INFORMATION
---------------------
There are 2 groups of distinct atoms

 Group   1 Type B   : 12s6p3d1f contracted to 6s3p3d1f pattern {621111/411/111/1}
 Group   2 Type H   : 5s3p1d contracted to 3s3p1d pattern {311/111/1}

Atom   0B    basis set group =>   1
Atom   1H    basis set group =>   2
Atom   2H    basis set group =>   2
Atom   3H    basis set group =>   2
----------------------------------
AUXILIARY/JK BASIS SET INFORMATION
----------------------------------
There are 2 groups of distinct atoms

 Group   1 Type B   : 14s10p6d2f1g contracted to 10s8p5d1f1g pattern {5111111111/31111111/21111/2/1}
 Group   2 Type H   : 4s2p2d contracted to 2s2p2d pattern {31/11/11}

Atom   0B    basis set group =>   1
Atom   1H    basis set group =>   2
Atom   2H    basis set group =>   2
Atom   3H    basis set group =>   2


           ************************************************************
           *        Program running with 24 parallel MPI-processes    *
           *              working on a common directory               *
           ************************************************************
------------------------------------------------------------------------------
                           ORCA GTO INTEGRAL CALCULATION
------------------------------------------------------------------------------

                         BASIS SET STATISTICS AND STARTUP INFO

 # of primitive gaussian shells          ...   49
 # of primitive gaussian functions       ...  109
 # of contracted shells                  ...   34
 # of contracted basis functions         ...   88
 Highest angular momentum                ...    3
 Maximum contraction depth               ...    6
 Integral package used                   ... LIBINT
 Integral threshhold            Thresh   ...  1.000e-10
 Primitive cut-off              TCut     ...  1.000e-11


------------------------------ INTEGRAL EVALUATION ----------------------------


 * One electron integrals 
 Pre-screening matrix                    ... done
 Shell pair data                         ... done (   0.000 sec)



           ************************************************************
           *        Program running with 24 parallel MPI-processes    *
           *              working on a common directory               *
           ************************************************************
-------------------------------------------------------------------------------
                                 ORCA SCF
-------------------------------------------------------------------------------

------------
SCF SETTINGS
------------
Hamiltonian:
 Density Functional     Method          .... DFT(GTOs)
 Exchange Functional    Exchange        .... WB97X-V
 Correlation Functional Correlation     .... WB97X-V
 Gradients option       PostSCFGGA      .... off
 Hybrid DFT is turned on
   Fraction HF Exchange ScalHFX         ....  0.167000
   Scaling of DF-GGA-X  ScalDFX         ....  0.000000
   Scaling of DF-GGA-C  ScalDFC         ....  1.000000
   Scaling of DF-LDA-C  ScalLDAC        ....  1.000000
   Perturbative correction              ....  0.000000
   Density functional embedding theory  .... OFF
 Long-range corrected/Screened/Range-Separated Hybrid DFT is turned on
   Amount of maximum screened exact exchange              ....  0.833000
   Range separation parameter mu (erf(mu*r12)/r12)        ....  0.300000
   NL short-range parameter             ....  6.000000
   NL long-range parameter              ....  0.010000


General Settings:
 Integral files         IntName         .... 169_b
 Hartree-Fock type      HFTyp           .... RHF
 Total Charge           Charge          ....    0
 Multiplicity           Mult            ....    1
 Number of Electrons    NEL             ....    8
 Basis Dimension        Dim             ....   88
 Nuclear Repulsion      ENuc            ....      7.3777944788 Eh

Convergence Acceleration:
 DIIS                   CNVDIIS         .... on
   Start iteration      DIISMaxIt       ....    12
   Startup error        DIISStart       ....  0.200000
   # of expansion vecs  DIISMaxEq       ....     5
   Bias factor          DIISBfac        ....   1.050
   Max. coefficient     DIISMaxC        ....  10.000
 Newton-Raphson         CNVNR           .... off
 SOSCF                  CNVSOSCF        .... on
   Start iteration      SOSCFMaxIt      ....   150
   Startup grad/error   SOSCFStart      ....  0.003300
 Level Shifting         CNVShift        .... on
   Level shift para.    LevelShift      ....    0.2500
   Turn off err/grad.   ShiftErr        ....    0.0010
 Zerner damping         CNVZerner       .... off
 Static damping         CNVDamp         .... on
   Fraction old density DampFac         ....    0.7000
   Max. Damping (<1)    DampMax         ....    0.9800
   Min. Damping (>=0)   DampMin         ....    0.0000
   Turn off err/grad.   DampErr         ....    0.1000
 Fernandez-Rico         CNVRico         .... off

SCF Procedure:
 Maximum # iterations   MaxIter         ....   125
 SCF integral mode      SCFMode         .... Direct
   Integral package                     .... LIBINT
 Reset frequency        DirectResetFreq ....    20
 Integral Threshold     Thresh          ....  1.000e-10 Eh
 Primitive CutOff       TCut            ....  1.000e-11 Eh

Convergence Tolerance:
 Convergence Check Mode ConvCheckMode   .... Total+1el-Energy
 Convergence forced     ConvForced      .... 0
 Energy Change          TolE            ....  1.000e-06 Eh
 1-El. energy change                    ....  1.000e-03 Eh
 Orbital Gradient       TolG            ....  5.000e-05
 Orbital Rotation angle TolX            ....  5.000e-05
 DIIS Error             TolErr          ....  1.000e-06


Diagonalization of the overlap matrix:
Smallest eigenvalue                        ... 3.326e-04
Time for diagonalization                   ...    0.003 sec
Threshold for overlap eigenvalues          ... 1.000e-08
Number of eigenvalues below threshold      ... 0
Time for construction of square roots      ...    0.001 sec
Total time needed                          ...    0.004 sec

-------------------
DFT GRID GENERATION
-------------------

General Integration Accuracy     IntAcc      ...  4.670
Radial Grid Type                 RadialGrid  ... Gauss-Chebyshev
Angular Grid (max. acc.)         AngularGrid ... Lebedev-302
Angular grid pruning method      GridPruning ... 3 (G Style)
Weight generation scheme         WeightScheme... Becke
Basis function cutoff            BFCut       ...    1.0000e-10
Integration weight cutoff        WCut        ...    1.0000e-14
Grids for H and He will be reduced by one unit

# of grid points (after initial pruning)     ...  16310 (   0.0 sec)
# of grid points (after weights+screening)   ...  16075 (   0.0 sec)
nearest neighbour list constructed           ...    0.0 sec
Grid point re-assignment to atoms done       ...    0.0 sec
Grid point division into batches done        ...    0.0 sec
Reduced shell lists constructed in    0.1 sec

Total number of grid points                  ...    16075
Total number of batches                      ...      253
Average number of points per batch           ...       63
Average number of grid points per atom       ...     4019
Average number of shells per batch           ...    29.50 (86.76%)
Average number of basis functions per batch  ...    78.00 (88.64%)
Average number of large shells per batch     ...    28.67 (97.18%)
Average number of large basis fcns per batch ...    75.17 (96.37%)
Maximum spatial batch extension              ...   3.31,  3.03, 23.21 au
Average spatial batch extension              ...   0.09,  0.10,  0.26 au

Time for grid setup =    0.097 sec

------------------------------
INITIAL GUESS: MODEL POTENTIAL
------------------------------
Loading Hartree-Fock densities                     ... done
Calculating cut-offs                               ... done
Setting up the integral package                    ... done
Initializing the effective Hamiltonian             ... done
Starting the Coulomb interaction                   ... done (   0.0 sec)
Reading the grid                                   ... done
Mapping shells                                     ... done
Starting the XC term evaluation                    ... done (   0.0 sec)
  promolecular density results
     # of electrons  =      7.998534963
     EX              =     -2.862076728
     EC              =     -0.262839595
     EX+EC           =     -3.124916323
Transforming the Hamiltonian                       ... done (   0.0 sec)
Diagonalizing the Hamiltonian                      ... done (   0.0 sec)
Back transforming the eigenvectors                 ... done (   0.0 sec)
Now organizing SCF variables                       ... done
                      ------------------
                      INITIAL GUESS DONE (   0.2 sec)
                      ------------------
--------------
SCF ITERATIONS
--------------
ITER       Energy         Delta-E        Max-DP      RMS-DP      [F,P]     Damp
               ***  Starting incremental Fock matrix formation  ***
  0    -26.6345488925   0.000000000000 0.00726024  0.00034079  0.2182340 0.7000
                      *** Initiating the SOSCF procedure ***
                      *** Re-Reading the Fockian *** 
                      *** Removing any level shift *** 
ITER      Energy       Delta-E        Grad      Rot      Max-DP    RMS-DP
  1    -26.63604478  -0.0014958863  0.001711  0.001711  0.016551  0.000999
               *** Restarting incremental Fock matrix formation ***
  2    -26.63955867  -0.0035138876  0.006181  0.003520  0.006375  0.000338
  3    -26.63963395  -0.0000752828  0.000517  0.001076  0.002751  0.000136
  4    -26.63964018  -0.0000062278  0.000414  0.000092  0.000160  0.000008
                 **** Energy Check signals convergence ****
              ***Rediagonalizing the Fockian in SOSCF/NRSCF***

               *****************************************************
               *                     SUCCESS                       *
               *           SCF CONVERGED AFTER   5 CYCLES          *
               *****************************************************


Setting up the DFT-NL grid :

General Integration Accuracy     IntAcc      ...  4.340
Radial Grid Type                 RadialGrid  ... Gauss-Chebyshev
Angular Grid (max. acc.)         AngularGrid ... Lebedev-110
Angular grid pruning method      GridPruning ... 3 (G Style)
Weight generation scheme         WeightScheme... Becke
Basis function cutoff            BFCut       ...    1.0000e-10
Integration weight cutoff        WCut        ...    1.0000e-14
Grids for H and He will be reduced by one unit

# of grid points (after initial pruning)     ...   4060 (   0.0 sec)
# of grid points (after weights+screening)   ...   3991 (   0.0 sec)
nearest neighbour list constructed           ...    0.0 sec
Grid point re-assignment to atoms done       ...    0.0 sec
Grid point division into batches done        ...    0.0 sec
Reduced shell lists constructed in    0.0 sec

Total number of grid points                  ...     3991
Total number of batches                      ...       65
Average number of points per batch           ...       61
Average number of grid points per atom       ...      998
Average number of shells per batch           ...    25.00 (73.53%)
Average number of basis functions per batch  ...    65.50 (74.43%)
Average number of large shells per batch     ...    25.00 (100.00%)
Average number of large basis fcns per batch ...    65.50 (100.00%)
Maximum spatial batch extension              ...   3.29,  2.24, 24.33 au
Average spatial batch extension              ...   0.13,  0.09,  0.78 au

Final grid set up in    0.0 sec

-------------------------------------------------------------------------------
                         DFT-NL dispersion correction                          
-------------------------------------------------------------------------------

SC Energy -26.639640305 
NL    Energy 0.033852474 
SC+NL Energy -26.605787831 
NL done in    0.0 sec
-------------------------------------------------------------------------------

----------------
TOTAL SCF ENERGY
----------------

Total Energy       :          -26.60578783 Eh            -723.98029 eV

Components:
Nuclear Repulsion  :            7.37779448 Eh             200.75999 eV
Electronic Energy  :          -33.98358231 Eh            -924.74029 eV
One Electron Energy:          -48.99005546 Eh           -1333.08718 eV
Two Electron Energy:           15.00647315 Eh             408.34689 eV

Virial components:
Potential Energy   :          -53.03171953 Eh           -1443.06645 eV
Kinetic Energy     :           26.42593170 Eh             719.08616 eV
Virial Ratio       :            2.00680605


DFT components:
N(Alpha)           :        4.000006133408 electrons
N(Beta)            :        4.000006133408 electrons
N(Total)           :        8.000012266817 electrons
E(X)               :       -3.048340787172 Eh       
E(C)               :       -0.269880749133 Eh       
NL Energy, E(C,NL) :        0.033852474422 Eh       
E(XC)              :       -3.284369061883 Eh       
DFET-embed. en.    :        0.000000000000 Eh       

---------------
SCF CONVERGENCE
---------------

  Last Energy change         ...   -1.2807e-07  Tolerance :   1.0000e-06
  Last MAX-Density change    ...    4.7148e-05  Tolerance :   1.0000e-05
  Last RMS-Density change    ...    2.5475e-06  Tolerance :   1.0000e-06
  Last Orbital Gradient      ...    4.5793e-05  Tolerance :   5.0000e-05
  Last Orbital Rotation      ...    2.2315e-05  Tolerance :   5.0000e-05

             **** THE GBW FILE WAS UPDATED (169_b.gbw) ****
             **** DENSITY FILE WAS UPDATED (169_b.scfp) ****
             **** ENERGY FILE WAS UPDATED (169_b.en.tmp) ****
             **** THE GBW FILE WAS UPDATED (169_b.gbw) ****
             **** DENSITY FILE WAS UPDATED (169_b.scfp) ****
----------------
ORBITAL ENERGIES
----------------

  NO   OCC          E(Eh)            E(eV) 
   0   2.0000      -6.869968      -186.9413 
   1   2.0000      -0.638886       -17.3850 
   2   2.0000      -0.461978       -12.5711 
   3   2.0000      -0.461978       -12.5711 
   4   0.0000       0.007750         0.2109 
   5   0.0000       0.045904         1.2491 
   6   0.0000       0.131366         3.5747 
   7   0.0000       0.131367         3.5747 
   8   0.0000       0.142936         3.8895 
   9   0.0000       0.142938         3.8895 
  10   0.0000       0.156511         4.2589 
  11   0.0000       0.167514         4.5583 
  12   0.0000       0.167515         4.5583 
  13   0.0000       0.208900         5.6845 
  14   0.0000       0.210514         5.7284 
  15   0.0000       0.300834         8.1861 
  16   0.0000       0.302161         8.2222 
  17   0.0000       0.302165         8.2223 
  18   0.0000       0.343295         9.3415 
  19   0.0000       0.354499         9.6464 
  20   0.0000       0.354503         9.6465 
  21   0.0000       0.365406         9.9432 
  22   0.0000       0.365412         9.9434 
  23   0.0000       0.385466        10.4891 
  24   0.0000       0.425600        11.5812 
  25   0.0000       0.451984        12.2991 
  26   0.0000       0.451989        12.2992 
  27   0.0000       0.622871        16.9492 
  28   0.0000       0.637083        17.3359 
  29   0.0000       0.637086        17.3360 
  30   0.0000       0.642268        17.4770 
  31   0.0000       0.642276        17.4772 
  32   0.0000       0.790840        21.5198 
  33   0.0000       0.962905        26.2020 
  34   0.0000       0.962911        26.2021 
  35   0.0000       1.017587        27.6899 
  36   0.0000       1.033205        28.1149 
  37   0.0000       1.099032        29.9062 
  38   0.0000       1.104119        30.0446 
  39   0.0000       1.104133        30.0450 
  40   0.0000       1.153611        31.3913 
  41   0.0000       1.153619        31.3916 
  42   0.0000       1.169442        31.8221 
  43   0.0000       1.346450        36.6388 
  44   0.0000       1.346508        36.6404 
  45   0.0000       1.568505        42.6812 
  46   0.0000       1.597821        43.4789 
  47   0.0000       1.597822        43.4790 
  48   0.0000       1.985151        54.0187 
  49   0.0000       1.985164        54.0190 
  50   0.0000       2.059018        56.0287 
  51   0.0000       2.083122        56.6846 
  52   0.0000       2.083124        56.6847 
  53   0.0000       2.127364        57.8885 
  54   0.0000       2.138182        58.1829 
  55   0.0000       2.138190        58.1831 
  56   0.0000       2.391845        65.0854 
  57   0.0000       2.522635        68.6444 
  58   0.0000       2.522668        68.6453 
  59   0.0000       2.542501        69.1850 
  60   0.0000       3.034750        82.5798 
  61   0.0000       3.034779        82.5805 
  62   0.0000       3.187522        86.7369 
  63   0.0000       3.293482        89.6202 
  64   0.0000       3.598388        97.9171 
  65   0.0000       3.598396        97.9173 
  66   0.0000       3.706912       100.8702 
  67   0.0000       3.706919       100.8704 
  68   0.0000       3.851516       104.8051 
  69   0.0000       3.958147       107.7067 
  70   0.0000       4.013779       109.2205 
  71   0.0000       4.029789       109.6561 
  72   0.0000       4.029794       109.6563 
  73   0.0000       4.131116       112.4134 
  74   0.0000       4.131127       112.4137 
  75   0.0000       4.204277       114.4042 
  76   0.0000       4.369568       118.9020 
  77   0.0000       4.369576       118.9022 
  78   0.0000       4.546898       123.7274 
  79   0.0000       4.546906       123.7276 
  80   0.0000       4.698335       127.8482 
  81   0.0000       4.698338       127.8483 
  82   0.0000       4.698539       127.8537 
  83   0.0000       4.884528       132.9148 
  84   0.0000       4.884528       132.9148 
  85   0.0000       5.224519       142.1664 
  86   0.0000       5.641722       153.5191 
  87   0.0000      15.654508       425.9808 

                    ********************************
                    * MULLIKEN POPULATION ANALYSIS *
                    ********************************

-----------------------
MULLIKEN ATOMIC CHARGES
-----------------------
   0 B :   -0.049215
   1 H :    0.016424
   2 H :    0.016424
   3 H :    0.016368
Sum of atomic charges:   -0.0000000

--------------------------------
MULLIKEN REDUCED ORBITAL CHARGES
--------------------------------
  0 B s       :     3.043427  s :     3.043427
      pz      :     0.000000  p :     1.934266
      px      :     0.967139
      py      :     0.967127
      dz2     :     0.005738  d :     0.067336
      dxz     :     0.000000
      dyz     :     0.000000
      dx2y2   :     0.030798
      dxy     :     0.030801
      f0      :     0.000000  f :     0.004187
      f+1     :     0.000911
      f-1     :     0.000911
      f+2     :     0.000000
      f-2     :     0.000000
      f+3     :     0.002365
      f-3     :     0.000000
  1 H s       :     0.965589  s :     0.965589
      pz      :    -0.000000  p :     0.017446
      px      :     0.008380
      py      :     0.009066
      dz2     :    -0.000022  d :     0.000541
      dxz     :    -0.000000
      dyz     :    -0.000000
      dx2y2   :     0.000409
      dxy     :     0.000154
  2 H s       :     0.965589  s :     0.965589
      pz      :    -0.000000  p :     0.017446
      px      :     0.008380
      py      :     0.009066
      dz2     :    -0.000022  d :     0.000541
      dxz     :    -0.000000
      dyz     :    -0.000000
      dx2y2   :     0.000409
      dxy     :     0.000154
  3 H s       :     0.965644  s :     0.965644
      pz      :     0.000000  p :     0.017447
      px      :     0.009422
      py      :     0.008024
      dz2     :    -0.000022  d :     0.000542
      dxz     :     0.000000
      dyz     :     0.000000
      dx2y2   :     0.000027
      dxy     :     0.000537


                     *******************************
                     * LOEWDIN POPULATION ANALYSIS *
                     *******************************

----------------------
LOEWDIN ATOMIC CHARGES
----------------------
   0 B :    0.244981
   1 H :   -0.081660
   2 H :   -0.081660
   3 H :   -0.081661

-------------------------------
LOEWDIN REDUCED ORBITAL CHARGES
-------------------------------
  0 B s       :     2.727451  s :     2.727451
      pz      :     0.000000  p :     1.822897
      px      :     0.911448
      py      :     0.911448
      dz2     :     0.021681  d :     0.186237
      dxz     :     0.000000
      dyz     :     0.000000
      dx2y2   :     0.082277
      dxy     :     0.082279
      f0      :     0.000000  f :     0.018434
      f+1     :     0.003542
      f-1     :     0.003542
      f+2     :     0.000000
      f-2     :     0.000000
      f+3     :     0.011351
      f-3     :     0.000000
  1 H s       :     0.865230  s :     0.865230
      pz      :     0.000000  p :     0.206787
      px      :     0.090054
      py      :     0.116733
      dz2     :     0.001260  d :     0.009643
      dxz     :     0.000000
      dyz     :     0.000000
      dx2y2   :     0.004312
      dxy     :     0.004071
  2 H s       :     0.865230  s :     0.865230
      pz      :     0.000000  p :     0.206787
      px      :     0.090054
      py      :     0.116733
      dz2     :     0.001260  d :     0.009643
      dxz     :     0.000000
      dyz     :     0.000000
      dx2y2   :     0.004312
      dxy     :     0.004071
  3 H s       :     0.865232  s :     0.865232
      pz      :     0.000000  p :     0.206786
      px      :     0.130073
      py      :     0.076713
      dz2     :     0.001260  d :     0.009643
      dxz     :     0.000000
      dyz     :     0.000000
      dx2y2   :     0.003950
      dxy     :     0.004432


                      *****************************
                      * MAYER POPULATION ANALYSIS *
                      *****************************

  NA   - Mulliken gross atomic population
  ZA   - Total nuclear charge
  QA   - Mulliken gross atomic charge
  VA   - Mayer's total valence
  BVA  - Mayer's bonded valence
  FA   - Mayer's free valence

  ATOM       NA         ZA         QA         VA         BVA        FA
  0 B      5.0492     5.0000    -0.0492     2.9844     2.9844    -0.0000
  1 H      0.9836     1.0000     0.0164     1.0105     1.0105    -0.0000
  2 H      0.9836     1.0000     0.0164     1.0105     1.0105    -0.0000
  3 H      0.9836     1.0000     0.0164     1.0104     1.0104     0.0000

  Mayer bond orders larger than 0.100000
B(  0-B ,  1-H ) :   0.9948 B(  0-B ,  2-H ) :   0.9948 B(  0-B ,  3-H ) :   0.9948 


-------
TIMINGS
-------

Total SCF time: 0 days 0 hours 0 min 1 sec 

Total time                  ....       1.189 sec
Sum of individual times     ....       1.007 sec  ( 84.7%)

Fock matrix formation       ....       0.796 sec  ( 66.9%)
  XC integration            ....       0.066 sec  (  8.3% of F)
    Basis function eval.    ....       0.009 sec  ( 13.2% of XC)
    Density eval.           ....       0.005 sec  (  7.2% of XC)
    XC-Functional eval.     ....       0.006 sec  (  9.6% of XC)
    XC-Potential eval.      ....       0.008 sec  ( 12.3% of XC)
Diagonalization             ....       0.002 sec  (  0.2%)
Density matrix formation    ....       0.002 sec  (  0.1%)
Population analysis         ....       0.003 sec  (  0.2%)
Initial guess               ....       0.097 sec  (  8.2%)
Orbital Transformation      ....       0.000 sec  (  0.0%)
Orbital Orthonormalization  ....       0.000 sec  (  0.0%)
DIIS solution               ....       0.000 sec  (  0.0%)
SOSCF solution              ....       0.002 sec  (  0.2%)
Grid generation             ....       0.105 sec  (  8.8%)

-------------------------   --------------------
FINAL SINGLE POINT ENERGY       -26.605787830646
-------------------------   --------------------


                            ***************************************
                            *     ORCA property calculations      *
                            ***************************************

                                    ---------------------
                                    Active property flags
                                    ---------------------
   (+) Dipole Moment


------------------------------------------------------------------------------
                       ORCA ELECTRIC PROPERTIES CALCULATION
------------------------------------------------------------------------------

Dipole Moment Calculation                       ... on
Quadrupole Moment Calculation                   ... off
Polarizability Calculation                      ... off
GBWName                                         ... 169_b.gbw
Electron density file                           ... 169_b.scfp
The origin for moment calculation is the CENTER OF MASS  = ( 0.000000,  0.000000  0.000000)

-------------
DIPOLE MOMENT
-------------
                                X             Y             Z
Electronic contribution:     -0.00000       0.00000       0.00000
Nuclear contribution   :      0.00000       0.00000       0.00000
                        -----------------------------------------
Total Dipole Moment    :     -0.00000       0.00000       0.00000
                        -----------------------------------------
Magnitude (a.u.)       :      0.00000
Magnitude (Debye)      :      0.00000



--------------------
Rotational spectrum 
--------------------
 
Rotational constants in cm-1:     7.741042     7.740977     3.870505 
Rotational constants in MHz : 232070.613118 232068.644801 116034.814478 

 Dipole components along the rotational axes: 
x,y,z [a.u.] :    -0.000001     0.000000     0.000000 
x,y,z [Debye]:    -0.000003     0.000000     0.000000 

 

Timings for individual modules:

Sum of individual times         ...        2.257 sec (=   0.038 min)
GTO integral calculation        ...        0.687 sec (=   0.011 min)  30.5 %
SCF iterations                  ...        1.569 sec (=   0.026 min)  69.5 %
                             ****ORCA TERMINATED NORMALLY****
TOTAL RUN TIME: 0 days 0 hours 0 minutes 2 seconds 694 msec
