
                                 *****************
                                 * O   R   C   A *
                                 *****************

           --- An Ab Initio, DFT and Semiempirical electronic structure package ---

                  #######################################################
                  #                        -***-                        #
                  #          Department of theory and spectroscopy      #
                  #               Directorship: Frank Neese             #
                  #        Max Planck Institute fuer Kohlenforschung    #
                  #                Kaiser Wilhelm Platz 1               #
                  #                 D-45470 Muelheim/Ruhr               #
                  #                      Germany                        #
                  #                                                     #
                  #                  All rights reserved                #
                  #                        -***-                        #
                  #######################################################


                         Program Version 4.2.0 -  RELEASE  -


 With contributions from (in alphabetic order):
   Daniel Aravena         : Magnetic Suceptibility
   Michael Atanasov       : Ab Initio Ligand Field Theory (pilot matlab implementation)
   Alexander A. Auer      : GIAO ZORA, VPT2
   Ute Becker             : Parallelization
   Giovanni Bistoni       : ED, misc. LED, open-shell LED, HFLED
   Martin Brehm           : Molecular dynamics
   Dmytro Bykov           : SCF Hessian
   Vijay G. Chilkuri      : MRCI spin determinant printing, contributions to CSF-ICE
   Dipayan Datta          : RHF DLPNO-CCSD density
   Achintya Kumar Dutta   : EOM-CC, STEOM-CC
   Dmitry Ganyushin       : Spin-Orbit,Spin-Spin,Magnetic field MRCI
   Miquel Garcia          : C-PCM Hessian, Gaussian charge scheme
   Yang Guo               : DLPNO-NEVPT2, CIM, IAO-localization
   Andreas Hansen         : Spin unrestricted coupled pair/coupled cluster methods
   Benjamin Helmich-Paris : CASSCF linear response (MC-RPA)
   Lee Huntington         : MR-EOM, pCC
   Robert Izsak           : Overlap fitted RIJCOSX, COSX-SCS-MP3, EOM
   Christian Kollmar      : KDIIS, OOCD, Brueckner-CCSD(T), CCSD density
   Simone Kossmann        : Meta GGA functionals, TD-DFT gradient, OOMP2, MP2 Hessian
   Martin Krupicka        : AUTO-CI
   Lucas Lang             : DCDCAS
   Dagmar Lenk            : GEPOL surface, SMD
   Dimitrios Liakos       : Extrapolation schemes; Compound Job, initial MDCI parallelization
   Dimitrios Manganas     : Further ROCIS development; embedding schemes
   Dimitrios Pantazis     : SARC Basis sets
   Taras Petrenko         : DFT Hessian,TD-DFT gradient, ASA, ECA, R-Raman, ABS, FL, XAS/XES, NRVS
   Peter Pinski           : DLPNO-MP2, DLPNO-MP2 Gradient
   Christoph Reimann      : Effective Core Potentials
   Marius Retegan         : Local ZFS, SOC
   Christoph Riplinger    : Optimizer, TS searches, QM/MM, DLPNO-CCSD(T), (RO)-DLPNO pert. Triples
   Tobias Risthaus        : Range-separated hybrids, TD-DFT gradient, RPA, STAB
   Michael Roemelt        : Original ROCIS implementation
   Masaaki Saitow         : Open-shell DLPNO-CCSD energy and density
   Barbara Sandhoefer     : DKH picture change effects
   Avijit Sen             : IP-ROCIS
   Kantharuban Sivalingam : CASSCF convergence, NEVPT2, FIC-MRCI
   Bernardo de Souza      : ESD, SOC TD-DFT
   Georgi Stoychev        : AutoAux, RI-MP2 NMR
   Willem Van den Heuvel  : Paramagnetic NMR
   Boris Wezisla          : Elementary symmetry handling
   Frank Wennmohs         : Technical directorship


 We gratefully acknowledge several colleagues who have allowed us to
 interface, adapt or use parts of their codes:
   Stefan Grimme, W. Hujo, H. Kruse,             : VdW corrections, initial TS optimization,
                  C. Bannwarth                     DFT functionals, gCP, sTDA/sTD-DF
   Ed Valeev, F. Pavosevic, A. Kumar             : LibInt (2-el integral package), F12 methods
   Garnet Chan, S. Sharma, J. Yang, R. Olivares  : DMRG
   Ulf Ekstrom                                   : XCFun DFT Library
   Mihaly Kallay                                 : mrcc  (arbitrary order and MRCC methods)
   Andreas Klamt, Michael Diedenhofen            : otool_cosmo (COSMO solvation model)
   Jiri Pittner, Ondrej Demel                    : Mk-CCSD
   Frank Weinhold                                : gennbo (NPA and NBO analysis)
   Christopher J. Cramer and Donald G. Truhlar   : smd solvation model
   Lars Goerigk                                  : TD-DFT with DH, B97 family of functionals
   V. Asgeirsson, H. Jonsson                     : NEB implementation
   FAccTs GmbH                                   : IRC, NEB, NEB-TS, Multilevel, MM, QM/MM, CI optimization
   S Lehtola, MJT Oliveira, MAL Marques          : LibXC Library


 Your calculation uses the libint2 library for the computation of 2-el integrals
 For citations please refer to: http://libint.valeyev.net

 Your ORCA version has been built with support for libXC version: 4.2.3
 For citations please refer to: https://tddft.org/programs/libxc/

 This ORCA versions uses:
   CBLAS   interface :  Fast vector & matrix operations
   LAPACKE interface :  Fast linear algebra routines
   SCALAPACK package :  Parallel linear algebra routines


Your calculation utilizes the DFT-NL dispersion correction.
Cite in your paper:
Vydrov, O. A.; Van Voorhis, T. J. Chem. Phys. 2010, 133, 244103
Hujo, W.; Grimme, S. J. Chem. Theory Comput. 2011, 7, 3866 
   

----- Orbital basis set information -----
Your calculation utilizes the basis: def2-TZVPPD
   F. Weigend and R. Ahlrichs, Phys. Chem. Chem. Phys. 7, 3297 (2005).
   D. Rappoport and F. Furche, J. Chem. Phys. 133 134105 (2010).

----- AuxJK basis set information -----
Your calculation utilizes the auxiliary basis: def2/JK
   H-Ba, Hf-Rn: F. Weigend, J. Comput. Chem. 29, 167 (2008).

================================================================================
                                        WARNINGS
                       Please study these warnings very carefully!
================================================================================


INFO   : the flag for use of LIBINT has been found!

================================================================================
                                       INPUT FILE
================================================================================
NAME = 170_c.in
|  1> #
|  2> # 170_c wB97X-V/Def2-TZVPPD
|  3> #
|  4> ! wb97x-v def2-tzvppd def2/jk grid4 nofinalgrid
|  5> 
|  6> *xyz 0 1
|  7> C          0.00000        0.00000        0.00000
|  8> H          0.63307        0.63307       -0.63307
|  9> H         -0.63307       -0.63307       -0.63307
| 10> H          0.63307       -0.63307        0.63307
| 11> H         -0.63307        0.63307        0.63307
| 12> *
| 13> 
| 14> %maxcore 5000
| 15> 
| 16> %pal
| 17> nprocs = 24
| 18> end
| 19> 
| 20> 
| 21>                          ****END OF INPUT****
================================================================================

                       ****************************
                       * Single Point Calculation *
                       ****************************

---------------------------------
CARTESIAN COORDINATES (ANGSTROEM)
---------------------------------
  C      0.000000    0.000000    0.000000
  H      0.633070    0.633070   -0.633070
  H     -0.633070   -0.633070   -0.633070
  H      0.633070   -0.633070    0.633070
  H     -0.633070    0.633070    0.633070

----------------------------
CARTESIAN COORDINATES (A.U.)
----------------------------
  NO LB      ZA    FRAG     MASS         X           Y           Z
   0 C     6.0000    0    12.011    0.000000    0.000000    0.000000
   1 H     1.0000    0     1.008    1.196329    1.196329   -1.196329
   2 H     1.0000    0     1.008   -1.196329   -1.196329   -1.196329
   3 H     1.0000    0     1.008    1.196329   -1.196329    1.196329
   4 H     1.0000    0     1.008   -1.196329    1.196329    1.196329

--------------------------------
INTERNAL COORDINATES (ANGSTROEM)
--------------------------------
 C      0   0   0     0.000000000000     0.00000000     0.00000000
 H      1   0   0     1.096509404748     0.00000000     0.00000000
 H      1   2   0     1.096509404748   109.47122063     0.00000000
 H      1   2   3     1.096509404748   109.47122063   120.00000000
 H      1   2   3     1.096509404748   109.47122063   240.00000000

---------------------------
INTERNAL COORDINATES (A.U.)
---------------------------
 C      0   0   0     0.000000000000     0.00000000     0.00000000
 H      1   0   0     2.072102478242     0.00000000     0.00000000
 H      1   2   0     2.072102478242   109.47122063     0.00000000
 H      1   2   3     2.072102478242   109.47122063   120.00000000
 H      1   2   3     2.072102478242   109.47122063   240.00000000

---------------------
BASIS SET INFORMATION
---------------------
There are 2 groups of distinct atoms

 Group   1 Type C   : 12s6p3d1f contracted to 6s3p3d1f pattern {621111/411/111/1}
 Group   2 Type H   : 5s3p1d contracted to 3s3p1d pattern {311/111/1}

Atom   0C    basis set group =>   1
Atom   1H    basis set group =>   2
Atom   2H    basis set group =>   2
Atom   3H    basis set group =>   2
Atom   4H    basis set group =>   2
----------------------------------
AUXILIARY/JK BASIS SET INFORMATION
----------------------------------
There are 2 groups of distinct atoms

 Group   1 Type C   : 14s10p6d2f1g contracted to 10s8p5d1f1g pattern {5111111111/31111111/21111/2/1}
 Group   2 Type H   : 4s2p2d contracted to 2s2p2d pattern {31/11/11}

Atom   0C    basis set group =>   1
Atom   1H    basis set group =>   2
Atom   2H    basis set group =>   2
Atom   3H    basis set group =>   2
Atom   4H    basis set group =>   2


           ************************************************************
           *        Program running with 24 parallel MPI-processes    *
           *              working on a common directory               *
           ************************************************************
------------------------------------------------------------------------------
                           ORCA GTO INTEGRAL CALCULATION
------------------------------------------------------------------------------

                         BASIS SET STATISTICS AND STARTUP INFO

 # of primitive gaussian shells          ...   58
 # of primitive gaussian functions       ...  128
 # of contracted shells                  ...   41
 # of contracted basis functions         ...  105
 Highest angular momentum                ...    3
 Maximum contraction depth               ...    6
 Integral package used                   ... LIBINT
 Integral threshhold            Thresh   ...  1.000e-10
 Primitive cut-off              TCut     ...  1.000e-11


------------------------------ INTEGRAL EVALUATION ----------------------------


 * One electron integrals 
 Pre-screening matrix                    ... done
 Shell pair data                         ... done (   0.000 sec)



           ************************************************************
           *        Program running with 24 parallel MPI-processes    *
           *              working on a common directory               *
           ************************************************************
-------------------------------------------------------------------------------
                                 ORCA SCF
-------------------------------------------------------------------------------

------------
SCF SETTINGS
------------
Hamiltonian:
 Density Functional     Method          .... DFT(GTOs)
 Exchange Functional    Exchange        .... WB97X-V
 Correlation Functional Correlation     .... WB97X-V
 Gradients option       PostSCFGGA      .... off
 Hybrid DFT is turned on
   Fraction HF Exchange ScalHFX         ....  0.167000
   Scaling of DF-GGA-X  ScalDFX         ....  0.000000
   Scaling of DF-GGA-C  ScalDFC         ....  1.000000
   Scaling of DF-LDA-C  ScalLDAC        ....  1.000000
   Perturbative correction              ....  0.000000
   Density functional embedding theory  .... OFF
 Long-range corrected/Screened/Range-Separated Hybrid DFT is turned on
   Amount of maximum screened exact exchange              ....  0.833000
   Range separation parameter mu (erf(mu*r12)/r12)        ....  0.300000
   NL short-range parameter             ....  6.000000
   NL long-range parameter              ....  0.010000


General Settings:
 Integral files         IntName         .... 170_c
 Hartree-Fock type      HFTyp           .... RHF
 Total Charge           Charge          ....    0
 Multiplicity           Mult            ....    1
 Number of Electrons    NEL             ....   10
 Basis Dimension        Dim             ....  105
 Nuclear Repulsion      ENuc            ....     13.3556302860 Eh

Convergence Acceleration:
 DIIS                   CNVDIIS         .... on
   Start iteration      DIISMaxIt       ....    12
   Startup error        DIISStart       ....  0.200000
   # of expansion vecs  DIISMaxEq       ....     5
   Bias factor          DIISBfac        ....   1.050
   Max. coefficient     DIISMaxC        ....  10.000
 Newton-Raphson         CNVNR           .... off
 SOSCF                  CNVSOSCF        .... on
   Start iteration      SOSCFMaxIt      ....   150
   Startup grad/error   SOSCFStart      ....  0.003300
 Level Shifting         CNVShift        .... on
   Level shift para.    LevelShift      ....    0.2500
   Turn off err/grad.   ShiftErr        ....    0.0010
 Zerner damping         CNVZerner       .... off
 Static damping         CNVDamp         .... on
   Fraction old density DampFac         ....    0.7000
   Max. Damping (<1)    DampMax         ....    0.9800
   Min. Damping (>=0)   DampMin         ....    0.0000
   Turn off err/grad.   DampErr         ....    0.1000
 Fernandez-Rico         CNVRico         .... off

SCF Procedure:
 Maximum # iterations   MaxIter         ....   125
 SCF integral mode      SCFMode         .... Direct
   Integral package                     .... LIBINT
 Reset frequency        DirectResetFreq ....    20
 Integral Threshold     Thresh          ....  1.000e-10 Eh
 Primitive CutOff       TCut            ....  1.000e-11 Eh

Convergence Tolerance:
 Convergence Check Mode ConvCheckMode   .... Total+1el-Energy
 Convergence forced     ConvForced      .... 0
 Energy Change          TolE            ....  1.000e-06 Eh
 1-El. energy change                    ....  1.000e-03 Eh
 Orbital Gradient       TolG            ....  5.000e-05
 Orbital Rotation angle TolX            ....  5.000e-05
 DIIS Error             TolErr          ....  1.000e-06


Diagonalization of the overlap matrix:
Smallest eigenvalue                        ... 3.157e-05
Time for diagonalization                   ...    0.003 sec
Threshold for overlap eigenvalues          ... 1.000e-08
Number of eigenvalues below threshold      ... 0
Time for construction of square roots      ...    0.001 sec
Total time needed                          ...    0.004 sec

-------------------
DFT GRID GENERATION
-------------------

General Integration Accuracy     IntAcc      ...  4.670
Radial Grid Type                 RadialGrid  ... Gauss-Chebyshev
Angular Grid (max. acc.)         AngularGrid ... Lebedev-302
Angular grid pruning method      GridPruning ... 3 (G Style)
Weight generation scheme         WeightScheme... Becke
Basis function cutoff            BFCut       ...    1.0000e-10
Integration weight cutoff        WCut        ...    1.0000e-14
Grids for H and He will be reduced by one unit

# of grid points (after initial pruning)     ...  19788 (   0.0 sec)
# of grid points (after weights+screening)   ...  19280 (   0.0 sec)
nearest neighbour list constructed           ...    0.0 sec
Grid point re-assignment to atoms done       ...    0.0 sec
Grid point division into batches done        ...    0.1 sec
Reduced shell lists constructed in    0.1 sec

Total number of grid points                  ...    19280
Total number of batches                      ...      304
Average number of points per batch           ...       63
Average number of grid points per atom       ...     3856
Average number of shells per batch           ...    37.79 (92.16%)
Average number of basis functions per batch  ...    97.21 (92.59%)
Average number of large shells per batch     ...    37.21 (98.49%)
Average number of large basis fcns per batch ...    96.07 (98.82%)
Maximum spatial batch extension              ...   1.25,  1.25,  1.25 au
Average spatial batch extension              ...   0.05,  0.05,  0.04 au

Time for grid setup =    0.141 sec

------------------------------
INITIAL GUESS: MODEL POTENTIAL
------------------------------
Loading Hartree-Fock densities                     ... done
Calculating cut-offs                               ... done
Setting up the integral package                    ... done
Initializing the effective Hamiltonian             ... done
Starting the Coulomb interaction                   ... done (   0.0 sec)
Reading the grid                                   ... done
Mapping shells                                     ... done
Starting the XC term evaluation                    ... done (   0.0 sec)
  promolecular density results
     # of electrons  =      9.998043414
     EX              =     -3.975432811
     EC              =     -0.358256058
     EX+EC           =     -4.333688870
Transforming the Hamiltonian                       ... done (   0.0 sec)
Diagonalizing the Hamiltonian                      ... done (   0.0 sec)
Back transforming the eigenvectors                 ... done (   0.0 sec)
Now organizing SCF variables                       ... done
                      ------------------
                      INITIAL GUESS DONE (   0.3 sec)
                      ------------------
--------------
SCF ITERATIONS
--------------
ITER       Energy         Delta-E        Max-DP      RMS-DP      [F,P]     Damp
               ***  Starting incremental Fock matrix formation  ***
  0    -40.5415953331   0.000000000000 0.03260125  0.00062441  0.2558954 0.7000
  1    -40.5476457032  -0.006050370099 0.02625401  0.00050444  0.1806979 0.7000
                               ***Turning on DIIS***
  2    -40.5510332295  -0.003387526305 0.01917728  0.00036172  0.1269211 0.7000
  3    -40.5531041909  -0.002070961435 0.04700364  0.00090706  0.0885248 0.0000
                      *** Initiating the SOSCF procedure ***
                           *** Shutting down DIIS ***
                      *** Re-Reading the Fockian *** 
                      *** Removing any level shift *** 
ITER      Energy       Delta-E        Grad      Rot      Max-DP    RMS-DP
  4    -40.55776306  -0.0046588713  0.002018  0.002018  0.003122  0.000164
               *** Restarting incremental Fock matrix formation ***
  5    -40.55779230  -0.0000292365  0.000576  0.000841  0.001887  0.000092
  6    -40.55779804  -0.0000057437  0.000175  0.000387  0.000786  0.000040
  7    -40.55779854  -0.0000004982  0.000055  0.000065  0.000077  0.000003
                 **** Energy Check signals convergence ****
              ***Rediagonalizing the Fockian in SOSCF/NRSCF***

               *****************************************************
               *                     SUCCESS                       *
               *           SCF CONVERGED AFTER   8 CYCLES          *
               *****************************************************


Setting up the DFT-NL grid :

General Integration Accuracy     IntAcc      ...  4.340
Radial Grid Type                 RadialGrid  ... Gauss-Chebyshev
Angular Grid (max. acc.)         AngularGrid ... Lebedev-110
Angular grid pruning method      GridPruning ... 3 (G Style)
Weight generation scheme         WeightScheme... Becke
Basis function cutoff            BFCut       ...    1.0000e-10
Integration weight cutoff        WCut        ...    1.0000e-14
Grids for H and He will be reduced by one unit

# of grid points (after initial pruning)     ...   4832 (   0.0 sec)
# of grid points (after weights+screening)   ...   4636 (   0.0 sec)
nearest neighbour list constructed           ...    0.0 sec
Grid point re-assignment to atoms done       ...    0.0 sec
Grid point division into batches done        ...    0.0 sec
Reduced shell lists constructed in    0.0 sec

Total number of grid points                  ...     4636
Total number of batches                      ...       74
Average number of points per batch           ...       62
Average number of grid points per atom       ...      927
Average number of shells per batch           ...    32.80 (80.00%)
Average number of basis functions per batch  ...    84.00 (80.00%)
Average number of large shells per batch     ...    32.80 (100.00%)
Average number of large basis fcns per batch ...    84.00 (100.00%)
Maximum spatial batch extension              ...   1.64,  1.64,  1.64 au
Average spatial batch extension              ...   0.09,  0.09,  0.09 au

Final grid set up in    0.0 sec

-------------------------------------------------------------------------------
                         DFT-NL dispersion correction                          
-------------------------------------------------------------------------------

SC Energy -40.557798596 
NL    Energy 0.041364890 
SC+NL Energy -40.516433707 
NL done in    0.0 sec
-------------------------------------------------------------------------------

----------------
TOTAL SCF ENERGY
----------------

Total Energy       :          -40.51643371 Eh           -1102.50821 eV

Components:
Nuclear Repulsion  :           13.35563029 Eh             363.42518 eV
Electronic Energy  :          -53.87206399 Eh           -1465.93339 eV
One Electron Energy:          -79.67772760 Eh           -2168.14119 eV
Two Electron Energy:           25.80566361 Eh             702.20781 eV

Virial components:
Potential Energy   :          -80.77215529 Eh           -2197.92209 eV
Kinetic Energy     :           40.25572158 Eh            1095.41387 eV
Virial Ratio       :            2.00647640


DFT components:
N(Alpha)           :        5.000049585018 electrons
N(Beta)            :        5.000049585018 electrons
N(Total)           :       10.000099170035 electrons
E(X)               :       -4.173220043328 Eh       
E(C)               :       -0.367779969574 Eh       
NL Energy, E(C,NL) :        0.041364889509 Eh       
E(XC)              :       -4.499635123392 Eh       
DFET-embed. en.    :        0.000000000000 Eh       

---------------
SCF CONVERGENCE
---------------

  Last Energy change         ...   -5.5504e-08  Tolerance :   1.0000e-06
  Last MAX-Density change    ...    3.5627e-05  Tolerance :   1.0000e-05
  Last RMS-Density change    ...    1.6891e-06  Tolerance :   1.0000e-06
  Last Orbital Gradient      ...    1.5864e-05  Tolerance :   5.0000e-05
  Last Orbital Rotation      ...    1.3976e-05  Tolerance :   5.0000e-05

             **** THE GBW FILE WAS UPDATED (170_c.gbw) ****
             **** DENSITY FILE WAS UPDATED (170_c.scfp) ****
             **** ENERGY FILE WAS UPDATED (170_c.en.tmp) ****
             **** THE GBW FILE WAS UPDATED (170_c.gbw) ****
             **** DENSITY FILE WAS UPDATED (170_c.scfp) ****
----------------
ORBITAL ENERGIES
----------------

  NO   OCC          E(Eh)            E(eV) 
   0   2.0000     -10.255169      -279.0573 
   1   2.0000      -0.823917       -22.4199 
   2   2.0000      -0.500787       -13.6271 
   3   2.0000      -0.500787       -13.6271 
   4   2.0000      -0.500787       -13.6271 
   5   0.0000       0.067782         1.8444 
   6   0.0000       0.156697         4.2640 
   7   0.0000       0.156698         4.2640 
   8   0.0000       0.156698         4.2640 
   9   0.0000       0.183862         5.0031 
  10   0.0000       0.183862         5.0031 
  11   0.0000       0.183862         5.0031 
  12   0.0000       0.222711         6.0603 
  13   0.0000       0.222711         6.0603 
  14   0.0000       0.280125         7.6226 
  15   0.0000       0.324532         8.8310 
  16   0.0000       0.360309         9.8045 
  17   0.0000       0.360309         9.8045 
  18   0.0000       0.360309         9.8045 
  19   0.0000       0.361670         9.8415 
  20   0.0000       0.361671         9.8416 
  21   0.0000       0.361671         9.8416 
  22   0.0000       0.382222        10.4008 
  23   0.0000       0.382222        10.4008 
  24   0.0000       0.382223        10.4008 
  25   0.0000       0.478353        13.0166 
  26   0.0000       0.478353        13.0166 
  27   0.0000       0.557746        15.1770 
  28   0.0000       0.557746        15.1770 
  29   0.0000       0.557746        15.1770 
  30   0.0000       0.683183        18.5904 
  31   0.0000       0.776237        21.1225 
  32   0.0000       0.791498        21.5377 
  33   0.0000       0.791499        21.5378 
  34   0.0000       0.791500        21.5378 
  35   0.0000       0.877552        23.8794 
  36   0.0000       0.877552        23.8794 
  37   0.0000       1.125547        30.6277 
  38   0.0000       1.125547        30.6277 
  39   0.0000       1.125547        30.6277 
  40   0.0000       1.136594        30.9283 
  41   0.0000       1.136594        30.9283 
  42   0.0000       1.136594        30.9283 
  43   0.0000       1.309345        35.6291 
  44   0.0000       1.309345        35.6291 
  45   0.0000       1.309346        35.6291 
  46   0.0000       1.565872        42.6095 
  47   0.0000       1.584684        43.1214 
  48   0.0000       1.584684        43.1214 
  49   0.0000       1.687050        45.9070 
  50   0.0000       1.687050        45.9070 
  51   0.0000       1.687052        45.9070 
  52   0.0000       1.869415        50.8694 
  53   0.0000       2.036905        55.4270 
  54   0.0000       2.036905        55.4270 
  55   0.0000       2.036905        55.4270 
  56   0.0000       2.793994        76.0284 
  57   0.0000       2.793994        76.0284 
  58   0.0000       2.793994        76.0284 
  59   0.0000       2.819788        76.7303 
  60   0.0000       2.983868        81.1952 
  61   0.0000       2.983868        81.1952 
  62   0.0000       2.983868        81.1952 
  63   0.0000       3.052422        83.0606 
  64   0.0000       3.052422        83.0606 
  65   0.0000       3.052422        83.0606 
  66   0.0000       3.075236        83.6814 
  67   0.0000       3.075236        83.6814 
  68   0.0000       3.453649        93.9786 
  69   0.0000       3.453649        93.9786 
  70   0.0000       3.453649        93.9786 
  71   0.0000       3.543926        96.4351 
  72   0.0000       3.543926        96.4351 
  73   0.0000       3.543926        96.4351 
  74   0.0000       3.611007        98.2605 
  75   0.0000       3.611007        98.2605 
  76   0.0000       3.835797       104.3774 
  77   0.0000       4.053196       110.2931 
  78   0.0000       4.053196       110.2931 
  79   0.0000       4.110298       111.8469 
  80   0.0000       4.110298       111.8469 
  81   0.0000       4.110298       111.8469 
  82   0.0000       4.253947       115.7558 
  83   0.0000       4.253947       115.7558 
  84   0.0000       4.253947       115.7558 
  85   0.0000       4.353985       118.4779 
  86   0.0000       4.353985       118.4780 
  87   0.0000       4.353985       118.4780 
  88   0.0000       4.691236       127.6550 
  89   0.0000       4.691236       127.6550 
  90   0.0000       4.691236       127.6550 
  91   0.0000       5.159080       140.3857 
  92   0.0000       5.244958       142.7226 
  93   0.0000       5.252461       142.9267 
  94   0.0000       5.252461       142.9267 
  95   0.0000       5.252461       142.9267 
  96   0.0000       5.412377       147.2783 
  97   0.0000       5.412377       147.2783 
  98   0.0000       5.462455       148.6410 
  99   0.0000       5.462455       148.6410 
 100   0.0000       5.462455       148.6410 
 101   0.0000       5.717307       155.5758 
 102   0.0000       5.717307       155.5758 
 103   0.0000       5.717307       155.5758 
 104   0.0000      23.875849       649.6949 

                    ********************************
                    * MULLIKEN POPULATION ANALYSIS *
                    ********************************

-----------------------
MULLIKEN ATOMIC CHARGES
-----------------------
   0 C :   -0.271430
   1 H :    0.067859
   2 H :    0.067851
   3 H :    0.067859
   4 H :    0.067861
Sum of atomic charges:    0.0000000

--------------------------------
MULLIKEN REDUCED ORBITAL CHARGES
--------------------------------
  0 C s       :     2.975526  s :     2.975526
      pz      :     1.080453  p :     3.241358
      px      :     1.080452
      py      :     1.080453
      dz2     :    -0.000000  d :     0.053374
      dxz     :     0.017791
      dyz     :     0.017791
      dx2y2   :     0.000000
      dxy     :     0.017791
      f0      :     0.000147  f :     0.001172
      f+1     :     0.000055
      f-1     :     0.000055
      f+2     :     0.000000
      f-2     :     0.000731
      f+3     :     0.000092
      f-3     :     0.000092
  1 H s       :     0.890623  s :     0.890623
      pz      :     0.013266  p :     0.039796
      px      :     0.013265
      py      :     0.013265
      dz2     :     0.000431  d :     0.001722
      dxz     :     0.000287
      dyz     :     0.000287
      dx2y2   :     0.000431
      dxy     :     0.000287
  2 H s       :     0.890629  s :     0.890629
      pz      :     0.013266  p :     0.039797
      px      :     0.013266
      py      :     0.013265
      dz2     :     0.000431  d :     0.001722
      dxz     :     0.000287
      dyz     :     0.000287
      dx2y2   :     0.000431
      dxy     :     0.000287
  3 H s       :     0.890623  s :     0.890623
      pz      :     0.013265  p :     0.039796
      px      :     0.013265
      py      :     0.013266
      dz2     :     0.000431  d :     0.001722
      dxz     :     0.000287
      dyz     :     0.000287
      dx2y2   :     0.000431
      dxy     :     0.000287
  4 H s       :     0.890621  s :     0.890621
      pz      :     0.013265  p :     0.039795
      px      :     0.013266
      py      :     0.013265
      dz2     :     0.000431  d :     0.001722
      dxz     :     0.000287
      dyz     :     0.000287
      dx2y2   :     0.000431
      dxy     :     0.000287


                     *******************************
                     * LOEWDIN POPULATION ANALYSIS *
                     *******************************

----------------------
LOEWDIN ATOMIC CHARGES
----------------------
   0 C :    0.248570
   1 H :   -0.062142
   2 H :   -0.062142
   3 H :   -0.062142
   4 H :   -0.062142

-------------------------------
LOEWDIN REDUCED ORBITAL CHARGES
-------------------------------
  0 C s       :     2.676047  s :     2.676047
      pz      :     0.944756  p :     2.834269
      px      :     0.944756
      py      :     0.944756
      dz2     :     0.000000  d :     0.222137
      dxz     :     0.074046
      dyz     :     0.074046
      dx2y2   :     0.000000
      dxy     :     0.074046
      f0      :     0.004348  f :     0.018977
      f+1     :     0.001630
      f-1     :     0.001630
      f+2     :     0.000000
      f-2     :     0.005934
      f+3     :     0.002717
      f-3     :     0.002717
  1 H s       :     0.730237  s :     0.730237
      pz      :     0.101091  p :     0.303272
      px      :     0.101091
      py      :     0.101091
      dz2     :     0.005905  d :     0.028633
      dxz     :     0.005608
      dyz     :     0.005608
      dx2y2   :     0.005905
      dxy     :     0.005608
  2 H s       :     0.730237  s :     0.730237
      pz      :     0.101091  p :     0.303272
      px      :     0.101091
      py      :     0.101091
      dz2     :     0.005905  d :     0.028633
      dxz     :     0.005608
      dyz     :     0.005608
      dx2y2   :     0.005905
      dxy     :     0.005608
  3 H s       :     0.730237  s :     0.730237
      pz      :     0.101091  p :     0.303272
      px      :     0.101091
      py      :     0.101091
      dz2     :     0.005905  d :     0.028633
      dxz     :     0.005608
      dyz     :     0.005608
      dx2y2   :     0.005905
      dxy     :     0.005608
  4 H s       :     0.730237  s :     0.730237
      pz      :     0.101091  p :     0.303272
      px      :     0.101091
      py      :     0.101091
      dz2     :     0.005905  d :     0.028633
      dxz     :     0.005608
      dyz     :     0.005608
      dx2y2   :     0.005905
      dxy     :     0.005608


                      *****************************
                      * MAYER POPULATION ANALYSIS *
                      *****************************

  NA   - Mulliken gross atomic population
  ZA   - Total nuclear charge
  QA   - Mulliken gross atomic charge
  VA   - Mayer's total valence
  BVA  - Mayer's bonded valence
  FA   - Mayer's free valence

  ATOM       NA         ZA         QA         VA         BVA        FA
  0 C      6.2714     6.0000    -0.2714     3.9539     3.9539     0.0000
  1 H      0.9321     1.0000     0.0679     1.0505     1.0505    -0.0000
  2 H      0.9321     1.0000     0.0679     1.0505     1.0505     0.0000
  3 H      0.9321     1.0000     0.0679     1.0505     1.0505    -0.0000
  4 H      0.9321     1.0000     0.0679     1.0505     1.0505     0.0000

  Mayer bond orders larger than 0.100000
B(  0-C ,  1-H ) :   0.9885 B(  0-C ,  2-H ) :   0.9885 B(  0-C ,  3-H ) :   0.9885 
B(  0-C ,  4-H ) :   0.9885 

-------
TIMINGS
-------

Total SCF time: 0 days 0 hours 0 min 1 sec 

Total time                  ....       1.808 sec
Sum of individual times     ....       1.606 sec  ( 88.8%)

Fock matrix formation       ....       1.312 sec  ( 72.5%)
  XC integration            ....       0.120 sec  (  9.2% of F)
    Basis function eval.    ....       0.021 sec  ( 17.3% of XC)
    Density eval.           ....       0.013 sec  ( 10.7% of XC)
    XC-Functional eval.     ....       0.011 sec  (  9.3% of XC)
    XC-Potential eval.      ....       0.026 sec  ( 22.0% of XC)
Diagonalization             ....       0.008 sec  (  0.5%)
Density matrix formation    ....       0.003 sec  (  0.1%)
Population analysis         ....       0.003 sec  (  0.2%)
Initial guess               ....       0.123 sec  (  6.8%)
Orbital Transformation      ....       0.000 sec  (  0.0%)
Orbital Orthonormalization  ....       0.000 sec  (  0.0%)
DIIS solution               ....       0.005 sec  (  0.3%)
SOSCF solution              ....       0.003 sec  (  0.2%)
Grid generation             ....       0.149 sec  (  8.2%)

-------------------------   --------------------
FINAL SINGLE POINT ENERGY       -40.516433706644
-------------------------   --------------------


                            ***************************************
                            *     ORCA property calculations      *
                            ***************************************

                                    ---------------------
                                    Active property flags
                                    ---------------------
   (+) Dipole Moment


------------------------------------------------------------------------------
                       ORCA ELECTRIC PROPERTIES CALCULATION
------------------------------------------------------------------------------

Dipole Moment Calculation                       ... on
Quadrupole Moment Calculation                   ... off
Polarizability Calculation                      ... off
GBWName                                         ... 170_c.gbw
Electron density file                           ... 170_c.scfp
The origin for moment calculation is the CENTER OF MASS  = ( 0.000000,  0.000000  0.000000)

-------------
DIPOLE MOMENT
-------------
                                X             Y             Z
Electronic contribution:      0.00000       0.00000      -0.00000
Nuclear contribution   :      0.00000       0.00000       0.00000
                        -----------------------------------------
Total Dipole Moment    :      0.00000       0.00000      -0.00000
                        -----------------------------------------
Magnitude (a.u.)       :      0.00000
Magnitude (Debye)      :      0.00000



--------------------
Rotational spectrum 
--------------------
 
Rotational constants in cm-1:     5.216064     5.216064     5.216064 
Rotational constants in MHz : 156373.665933 156373.665933 156373.665933 

 Dipole components along the rotational axes: 
x,y,z [a.u.] :     0.000000     0.000000    -0.000000 
x,y,z [Debye]:     0.000000     0.000000    -0.000000 

 

Timings for individual modules:

Sum of individual times         ...        3.046 sec (=   0.051 min)
GTO integral calculation        ...        0.819 sec (=   0.014 min)  26.9 %
SCF iterations                  ...        2.227 sec (=   0.037 min)  73.1 %
                             ****ORCA TERMINATED NORMALLY****
TOTAL RUN TIME: 0 days 0 hours 0 minutes 3 seconds 594 msec
