
                                 *****************
                                 * O   R   C   A *
                                 *****************

           --- An Ab Initio, DFT and Semiempirical electronic structure package ---

                  #######################################################
                  #                        -***-                        #
                  #          Department of theory and spectroscopy      #
                  #               Directorship: Frank Neese             #
                  #        Max Planck Institute fuer Kohlenforschung    #
                  #                Kaiser Wilhelm Platz 1               #
                  #                 D-45470 Muelheim/Ruhr               #
                  #                      Germany                        #
                  #                                                     #
                  #                  All rights reserved                #
                  #                        -***-                        #
                  #######################################################


                         Program Version 4.2.0 -  RELEASE  -


 With contributions from (in alphabetic order):
   Daniel Aravena         : Magnetic Suceptibility
   Michael Atanasov       : Ab Initio Ligand Field Theory (pilot matlab implementation)
   Alexander A. Auer      : GIAO ZORA, VPT2
   Ute Becker             : Parallelization
   Giovanni Bistoni       : ED, misc. LED, open-shell LED, HFLED
   Martin Brehm           : Molecular dynamics
   Dmytro Bykov           : SCF Hessian
   Vijay G. Chilkuri      : MRCI spin determinant printing, contributions to CSF-ICE
   Dipayan Datta          : RHF DLPNO-CCSD density
   Achintya Kumar Dutta   : EOM-CC, STEOM-CC
   Dmitry Ganyushin       : Spin-Orbit,Spin-Spin,Magnetic field MRCI
   Miquel Garcia          : C-PCM Hessian, Gaussian charge scheme
   Yang Guo               : DLPNO-NEVPT2, CIM, IAO-localization
   Andreas Hansen         : Spin unrestricted coupled pair/coupled cluster methods
   Benjamin Helmich-Paris : CASSCF linear response (MC-RPA)
   Lee Huntington         : MR-EOM, pCC
   Robert Izsak           : Overlap fitted RIJCOSX, COSX-SCS-MP3, EOM
   Christian Kollmar      : KDIIS, OOCD, Brueckner-CCSD(T), CCSD density
   Simone Kossmann        : Meta GGA functionals, TD-DFT gradient, OOMP2, MP2 Hessian
   Martin Krupicka        : AUTO-CI
   Lucas Lang             : DCDCAS
   Dagmar Lenk            : GEPOL surface, SMD
   Dimitrios Liakos       : Extrapolation schemes; Compound Job, initial MDCI parallelization
   Dimitrios Manganas     : Further ROCIS development; embedding schemes
   Dimitrios Pantazis     : SARC Basis sets
   Taras Petrenko         : DFT Hessian,TD-DFT gradient, ASA, ECA, R-Raman, ABS, FL, XAS/XES, NRVS
   Peter Pinski           : DLPNO-MP2, DLPNO-MP2 Gradient
   Christoph Reimann      : Effective Core Potentials
   Marius Retegan         : Local ZFS, SOC
   Christoph Riplinger    : Optimizer, TS searches, QM/MM, DLPNO-CCSD(T), (RO)-DLPNO pert. Triples
   Tobias Risthaus        : Range-separated hybrids, TD-DFT gradient, RPA, STAB
   Michael Roemelt        : Original ROCIS implementation
   Masaaki Saitow         : Open-shell DLPNO-CCSD energy and density
   Barbara Sandhoefer     : DKH picture change effects
   Avijit Sen             : IP-ROCIS
   Kantharuban Sivalingam : CASSCF convergence, NEVPT2, FIC-MRCI
   Bernardo de Souza      : ESD, SOC TD-DFT
   Georgi Stoychev        : AutoAux, RI-MP2 NMR
   Willem Van den Heuvel  : Paramagnetic NMR
   Boris Wezisla          : Elementary symmetry handling
   Frank Wennmohs         : Technical directorship


 We gratefully acknowledge several colleagues who have allowed us to
 interface, adapt or use parts of their codes:
   Stefan Grimme, W. Hujo, H. Kruse,             : VdW corrections, initial TS optimization,
                  C. Bannwarth                     DFT functionals, gCP, sTDA/sTD-DF
   Ed Valeev, F. Pavosevic, A. Kumar             : LibInt (2-el integral package), F12 methods
   Garnet Chan, S. Sharma, J. Yang, R. Olivares  : DMRG
   Ulf Ekstrom                                   : XCFun DFT Library
   Mihaly Kallay                                 : mrcc  (arbitrary order and MRCC methods)
   Andreas Klamt, Michael Diedenhofen            : otool_cosmo (COSMO solvation model)
   Jiri Pittner, Ondrej Demel                    : Mk-CCSD
   Frank Weinhold                                : gennbo (NPA and NBO analysis)
   Christopher J. Cramer and Donald G. Truhlar   : smd solvation model
   Lars Goerigk                                  : TD-DFT with DH, B97 family of functionals
   V. Asgeirsson, H. Jonsson                     : NEB implementation
   FAccTs GmbH                                   : IRC, NEB, NEB-TS, Multilevel, MM, QM/MM, CI optimization
   S Lehtola, MJT Oliveira, MAL Marques          : LibXC Library


 Your calculation uses the libint2 library for the computation of 2-el integrals
 For citations please refer to: http://libint.valeyev.net

 Your ORCA version has been built with support for libXC version: 4.2.3
 For citations please refer to: https://tddft.org/programs/libxc/

 This ORCA versions uses:
   CBLAS   interface :  Fast vector & matrix operations
   LAPACKE interface :  Fast linear algebra routines
   SCALAPACK package :  Parallel linear algebra routines


Your calculation utilizes the DFT-NL dispersion correction.
Cite in your paper:
Vydrov, O. A.; Van Voorhis, T. J. Chem. Phys. 2010, 133, 244103
Hujo, W.; Grimme, S. J. Chem. Theory Comput. 2011, 7, 3866 
   

----- Orbital basis set information -----
Your calculation utilizes the basis: def2-TZVPPD
   F. Weigend and R. Ahlrichs, Phys. Chem. Chem. Phys. 7, 3297 (2005).
   D. Rappoport and F. Furche, J. Chem. Phys. 133 134105 (2010).

----- AuxJK basis set information -----
Your calculation utilizes the auxiliary basis: def2/JK
   H-Ba, Hf-Rn: F. Weigend, J. Comput. Chem. 29, 167 (2008).

================================================================================
                                        WARNINGS
                       Please study these warnings very carefully!
================================================================================


INFO   : the flag for use of LIBINT has been found!

================================================================================
                                       INPUT FILE
================================================================================
NAME = 171_n.in
|  1> #
|  2> # 171_n wB97X-V/Def2-TZVPPD
|  3> #
|  4> ! wb97x-v def2-tzvppd def2/jk grid4 nofinalgrid
|  5> 
|  6> *xyz 0 1
|  7> N          0.00000        0.00000        0.55227
|  8> N          0.00000        0.00000       -0.55227
|  9> *
| 10> 
| 11> %maxcore 5000
| 12> 
| 13> %pal
| 14> nprocs = 24
| 15> end
| 16> 
| 17> 
| 18>                          ****END OF INPUT****
================================================================================

                       ****************************
                       * Single Point Calculation *
                       ****************************

---------------------------------
CARTESIAN COORDINATES (ANGSTROEM)
---------------------------------
  N      0.000000    0.000000    0.552270
  N      0.000000    0.000000   -0.552270

----------------------------
CARTESIAN COORDINATES (A.U.)
----------------------------
  NO LB      ZA    FRAG     MASS         X           Y           Z
   0 N     7.0000    0    14.007    0.000000    0.000000    1.043639
   1 N     7.0000    0    14.007    0.000000    0.000000   -1.043639

--------------------------------
INTERNAL COORDINATES (ANGSTROEM)
--------------------------------
 N      0   0   0     0.000000000000     0.00000000     0.00000000
 N      1   0   0     1.104540000000     0.00000000     0.00000000

---------------------------
INTERNAL COORDINATES (A.U.)
---------------------------
 N      0   0   0     0.000000000000     0.00000000     0.00000000
 N      1   0   0     2.087278103961     0.00000000     0.00000000

---------------------
BASIS SET INFORMATION
---------------------
There are 1 groups of distinct atoms

 Group   1 Type N   : 12s6p3d1f contracted to 6s3p3d1f pattern {621111/411/111/1}

Atom   0N    basis set group =>   1
Atom   1N    basis set group =>   1
----------------------------------
AUXILIARY/JK BASIS SET INFORMATION
----------------------------------
There are 1 groups of distinct atoms

 Group   1 Type N   : 14s10p6d2f1g contracted to 10s8p4d2f1g pattern {5111111111/31111111/3111/11/1}

Atom   0N    basis set group =>   1
Atom   1N    basis set group =>   1


           ************************************************************
           *        Program running with 24 parallel MPI-processes    *
           *              working on a common directory               *
           ************************************************************
------------------------------------------------------------------------------
                           ORCA GTO INTEGRAL CALCULATION
------------------------------------------------------------------------------

                         BASIS SET STATISTICS AND STARTUP INFO

 # of primitive gaussian shells          ...   44
 # of primitive gaussian functions       ...  104
 # of contracted shells                  ...   26
 # of contracted basis functions         ...   74
 Highest angular momentum                ...    3
 Maximum contraction depth               ...    6
 Integral package used                   ... LIBINT
 Integral threshhold            Thresh   ...  1.000e-10
 Primitive cut-off              TCut     ...  1.000e-11


------------------------------ INTEGRAL EVALUATION ----------------------------


 * One electron integrals 
 Pre-screening matrix                    ... done
 Shell pair data                         ... done (   0.000 sec)



           ************************************************************
           *        Program running with 24 parallel MPI-processes    *
           *              working on a common directory               *
           ************************************************************
-------------------------------------------------------------------------------
                                 ORCA SCF
-------------------------------------------------------------------------------

------------
SCF SETTINGS
------------
Hamiltonian:
 Density Functional     Method          .... DFT(GTOs)
 Exchange Functional    Exchange        .... WB97X-V
 Correlation Functional Correlation     .... WB97X-V
 Gradients option       PostSCFGGA      .... off
 Hybrid DFT is turned on
   Fraction HF Exchange ScalHFX         ....  0.167000
   Scaling of DF-GGA-X  ScalDFX         ....  0.000000
   Scaling of DF-GGA-C  ScalDFC         ....  1.000000
   Scaling of DF-LDA-C  ScalLDAC        ....  1.000000
   Perturbative correction              ....  0.000000
   Density functional embedding theory  .... OFF
 Long-range corrected/Screened/Range-Separated Hybrid DFT is turned on
   Amount of maximum screened exact exchange              ....  0.833000
   Range separation parameter mu (erf(mu*r12)/r12)        ....  0.300000
   NL short-range parameter             ....  6.000000
   NL long-range parameter              ....  0.010000


General Settings:
 Integral files         IntName         .... 171_n
 Hartree-Fock type      HFTyp           .... RHF
 Total Charge           Charge          ....    0
 Multiplicity           Mult            ....    1
 Number of Electrons    NEL             ....   14
 Basis Dimension        Dim             ....   74
 Nuclear Repulsion      ENuc            ....     23.4755492845 Eh

Convergence Acceleration:
 DIIS                   CNVDIIS         .... on
   Start iteration      DIISMaxIt       ....    12
   Startup error        DIISStart       ....  0.200000
   # of expansion vecs  DIISMaxEq       ....     5
   Bias factor          DIISBfac        ....   1.050
   Max. coefficient     DIISMaxC        ....  10.000
 Newton-Raphson         CNVNR           .... off
 SOSCF                  CNVSOSCF        .... on
   Start iteration      SOSCFMaxIt      ....   150
   Startup grad/error   SOSCFStart      ....  0.003300
 Level Shifting         CNVShift        .... on
   Level shift para.    LevelShift      ....    0.2500
   Turn off err/grad.   ShiftErr        ....    0.0010
 Zerner damping         CNVZerner       .... off
 Static damping         CNVDamp         .... on
   Fraction old density DampFac         ....    0.7000
   Max. Damping (<1)    DampMax         ....    0.9800
   Min. Damping (>=0)   DampMin         ....    0.0000
   Turn off err/grad.   DampErr         ....    0.1000
 Fernandez-Rico         CNVRico         .... off

SCF Procedure:
 Maximum # iterations   MaxIter         ....   125
 SCF integral mode      SCFMode         .... Direct
   Integral package                     .... LIBINT
 Reset frequency        DirectResetFreq ....    20
 Integral Threshold     Thresh          ....  1.000e-10 Eh
 Primitive CutOff       TCut            ....  1.000e-11 Eh

Convergence Tolerance:
 Convergence Check Mode ConvCheckMode   .... Total+1el-Energy
 Convergence forced     ConvForced      .... 0
 Energy Change          TolE            ....  1.000e-06 Eh
 1-El. energy change                    ....  1.000e-03 Eh
 Orbital Gradient       TolG            ....  5.000e-05
 Orbital Rotation angle TolX            ....  5.000e-05
 DIIS Error             TolErr          ....  1.000e-06


Diagonalization of the overlap matrix:
Smallest eigenvalue                        ... 3.055e-05
Time for diagonalization                   ...    0.003 sec
Threshold for overlap eigenvalues          ... 1.000e-08
Number of eigenvalues below threshold      ... 0
Time for construction of square roots      ...    0.001 sec
Total time needed                          ...    0.005 sec

-------------------
DFT GRID GENERATION
-------------------

General Integration Accuracy     IntAcc      ...  4.670
Radial Grid Type                 RadialGrid  ... Gauss-Chebyshev
Angular Grid (max. acc.)         AngularGrid ... Lebedev-302
Angular grid pruning method      GridPruning ... 3 (G Style)
Weight generation scheme         WeightScheme... Becke
Basis function cutoff            BFCut       ...    1.0000e-10
Integration weight cutoff        WCut        ...    1.0000e-14
Grids for H and He will be reduced by one unit

# of grid points (after initial pruning)     ...  12424 (   0.0 sec)
# of grid points (after weights+screening)   ...  12394 (   0.0 sec)
nearest neighbour list constructed           ...    0.0 sec
Grid point re-assignment to atoms done       ...    0.0 sec
Grid point division into batches done        ...    0.1 sec
Reduced shell lists constructed in    0.1 sec

Total number of grid points                  ...    12394
Total number of batches                      ...      194
Average number of points per batch           ...       63
Average number of grid points per atom       ...     6197
Average number of shells per batch           ...     6.80 (26.15%)
Average number of basis functions per batch  ...    17.00 (22.97%)
Average number of large shells per batch     ...     5.40 (79.41%)
Average number of large basis fcns per batch ...    14.60 (85.88%)
Maximum spatial batch extension              ...  19.94, 19.94, 11.34 au
Average spatial batch extension              ...   0.68,  0.68,  0.45 au

Time for grid setup =    0.104 sec

------------------------------
INITIAL GUESS: MODEL POTENTIAL
------------------------------
Loading Hartree-Fock densities                     ... done
Calculating cut-offs                               ... done
Setting up the integral package                    ... done
Initializing the effective Hamiltonian             ... done
Starting the Coulomb interaction                   ... done (   0.0 sec)
Reading the grid                                   ... done
Mapping shells                                     ... done
Starting the XC term evaluation                    ... done (   0.0 sec)
  promolecular density results
     # of electrons  =     13.999994265
     EX              =     -8.967928529
     EC              =     -0.588062753
     EX+EC           =     -9.555991282
Transforming the Hamiltonian                       ... done (   0.0 sec)
Diagonalizing the Hamiltonian                      ... done (   0.0 sec)
Back transforming the eigenvectors                 ... done (   0.0 sec)
Now organizing SCF variables                       ... done
                      ------------------
                      INITIAL GUESS DONE (   0.2 sec)
                      ------------------
--------------
SCF ITERATIONS
--------------
ITER       Energy         Delta-E        Max-DP      RMS-DP      [F,P]     Damp
               ***  Starting incremental Fock matrix formation  ***
  0   -109.5742072097   0.000000000000 0.02450279  0.00118641  0.3055844 0.7000
  1   -109.5823355583  -0.008128348602 0.01632464  0.00092367  0.2069489 0.7000
                               ***Turning on DIIS***
  2   -109.5875784607  -0.005242902473 0.01173624  0.00067397  0.1395415 0.7000
  3   -109.5910193554  -0.003440894629 0.03271502  0.00169528  0.0943346 0.0000
                      *** Initiating the SOSCF procedure ***
                           *** Shutting down DIIS ***
                      *** Re-Reading the Fockian *** 
                      *** Removing any level shift *** 
ITER      Energy       Delta-E        Grad      Rot      Max-DP    RMS-DP
  4   -109.59885312  -0.0078337682  0.002023  0.002023  0.004950  0.000246
               *** Restarting incremental Fock matrix formation ***
  5   -109.59888891  -0.0000357866  0.001196  0.001795  0.003191  0.000157
  6   -109.59889568  -0.0000067656  0.000290  0.000666  0.001252  0.000066
  7   -109.59889628  -0.0000006025  0.000061  0.000030  0.000091  0.000006
                 **** Energy Check signals convergence ****
              ***Rediagonalizing the Fockian in SOSCF/NRSCF***

               *****************************************************
               *                     SUCCESS                       *
               *           SCF CONVERGED AFTER   8 CYCLES          *
               *****************************************************


Setting up the DFT-NL grid :

General Integration Accuracy     IntAcc      ...  4.340
Radial Grid Type                 RadialGrid  ... Gauss-Chebyshev
Angular Grid (max. acc.)         AngularGrid ... Lebedev-110
Angular grid pruning method      GridPruning ... 3 (G Style)
Weight generation scheme         WeightScheme... Becke
Basis function cutoff            BFCut       ...    1.0000e-10
Integration weight cutoff        WCut        ...    1.0000e-14
Grids for H and He will be reduced by one unit

# of grid points (after initial pruning)     ...   3404 (   0.0 sec)
# of grid points (after weights+screening)   ...   3378 (   0.0 sec)
nearest neighbour list constructed           ...    0.0 sec
Grid point re-assignment to atoms done       ...    0.0 sec
Grid point division into batches done        ...    0.0 sec
Reduced shell lists constructed in    0.0 sec

Total number of grid points                  ...     3378
Total number of batches                      ...       54
Average number of points per batch           ...       62
Average number of grid points per atom       ...     1689
Average number of shells per batch           ...    14.25 (54.81%)
Average number of basis functions per batch  ...    42.75 (57.77%)
Average number of large shells per batch     ...    10.50 (73.68%)
Average number of large basis fcns per batch ...    28.50 (66.67%)
Maximum spatial batch extension              ...  15.77, 25.65, 13.43 au
Average spatial batch extension              ...   0.81,  1.21,  0.75 au

Final grid set up in    0.0 sec

-------------------------------------------------------------------------------
                         DFT-NL dispersion correction                          
-------------------------------------------------------------------------------

SC Energy -109.598896303 
NL    Energy 0.058940003 
SC+NL Energy -109.539956300 
NL done in    0.0 sec
-------------------------------------------------------------------------------

----------------
TOTAL SCF ENERGY
----------------

Total Energy       :         -109.53995630 Eh           -2980.73375 eV

Components:
Nuclear Repulsion  :           23.47554928 Eh             638.80217 eV
Electronic Energy  :         -133.01550558 Eh           -3619.53592 eV
One Electron Energy:         -194.21642149 Eh           -5284.89751 eV
Two Electron Energy:           61.20091591 Eh            1665.36159 eV

Virial components:
Potential Energy   :         -218.67600955 Eh           -5950.47674 eV
Kinetic Energy     :          109.13605325 Eh            2969.74299 eV
Virial Ratio       :            2.00370091


DFT components:
N(Alpha)           :        6.999998928861 electrons
N(Beta)            :        6.999998928861 electrons
N(Total)           :       13.999997857723 electrons
E(X)               :       -9.092958690381 Eh       
E(C)               :       -0.592240969661 Eh       
NL Energy, E(C,NL) :        0.058940002937 Eh       
E(XC)              :       -9.626259657105 Eh       
DFET-embed. en.    :        0.000000000000 Eh       

---------------
SCF CONVERGENCE
---------------

  Last Energy change         ...   -2.4519e-08  Tolerance :   1.0000e-06
  Last MAX-Density change    ...    3.0392e-05  Tolerance :   1.0000e-05
  Last RMS-Density change    ...    1.3962e-06  Tolerance :   1.0000e-06
  Last Orbital Gradient      ...    6.2030e-06  Tolerance :   5.0000e-05
  Last Orbital Rotation      ...    1.0009e-05  Tolerance :   5.0000e-05

             **** THE GBW FILE WAS UPDATED (171_n.gbw) ****
             **** DENSITY FILE WAS UPDATED (171_n.scfp) ****
             **** ENERGY FILE WAS UPDATED (171_n.en.tmp) ****
             **** THE GBW FILE WAS UPDATED (171_n.gbw) ****
             **** DENSITY FILE WAS UPDATED (171_n.scfp) ****
----------------
ORBITAL ENERGIES
----------------

  NO   OCC          E(Eh)            E(eV) 
   0   2.0000     -14.518305      -395.0632 
   1   2.0000     -14.516657      -395.0183 
   2   2.0000      -1.255567       -34.1657 
   3   2.0000      -0.679599       -18.4928 
   4   2.0000      -0.579515       -15.7694 
   5   2.0000      -0.579515       -15.7694 
   6   2.0000      -0.549473       -14.9519 
   7   0.0000       0.066746         1.8163 
   8   0.0000       0.066746         1.8163 
   9   0.0000       0.117316         3.1923 
  10   0.0000       0.147981         4.0268 
  11   0.0000       0.295703         8.0465 
  12   0.0000       0.338462         9.2100 
  13   0.0000       0.338462         9.2100 
  14   0.0000       0.351981         9.5779 
  15   0.0000       0.351981         9.5779 
  16   0.0000       0.367262         9.9937 
  17   0.0000       0.367262         9.9937 
  18   0.0000       0.403258        10.9732 
  19   0.0000       0.500942        13.6313 
  20   0.0000       0.500942        13.6313 
  21   0.0000       0.525043        14.2871 
  22   0.0000       0.525043        14.2871 
  23   0.0000       0.559703        15.2303 
  24   0.0000       0.593700        16.1554 
  25   0.0000       0.757962        20.6252 
  26   0.0000       0.807902        21.9841 
  27   0.0000       0.832928        22.6651 
  28   0.0000       0.832928        22.6651 
  29   0.0000       1.114747        30.3338 
  30   0.0000       1.177355        32.0375 
  31   0.0000       1.177355        32.0375 
  32   0.0000       1.330774        36.2122 
  33   0.0000       1.330774        36.2122 
  34   0.0000       1.550503        42.1913 
  35   0.0000       1.550503        42.1913 
  36   0.0000       1.603571        43.6354 
  37   0.0000       1.780069        48.4381 
  38   0.0000       1.780069        48.4381 
  39   0.0000       2.013207        54.7822 
  40   0.0000       2.078802        56.5671 
  41   0.0000       2.078802        56.5671 
  42   0.0000       2.242421        61.0194 
  43   0.0000       2.527797        68.7848 
  44   0.0000       2.620224        71.2999 
  45   0.0000       2.620224        71.2999 
  46   0.0000       2.785757        75.8043 
  47   0.0000       3.025337        82.3236 
  48   0.0000       3.599342        97.9431 
  49   0.0000       3.599342        97.9431 
  50   0.0000       3.707943       100.8983 
  51   0.0000       3.707943       100.8983 
  52   0.0000       3.820675       103.9658 
  53   0.0000       3.820675       103.9658 
  54   0.0000       4.176635       113.6520 
  55   0.0000       4.176635       113.6520 
  56   0.0000       4.266396       116.0945 
  57   0.0000       4.616293       125.6157 
  58   0.0000       4.616296       125.6158 
  59   0.0000       4.638993       126.2334 
  60   0.0000       4.638993       126.2334 
  61   0.0000       4.732947       128.7900 
  62   0.0000       4.732951       128.7901 
  63   0.0000       5.005796       136.2146 
  64   0.0000       5.005796       136.2146 
  65   0.0000       5.139988       139.8662 
  66   0.0000       5.142543       139.9357 
  67   0.0000       5.142543       139.9357 
  68   0.0000       6.240471       169.8119 
  69   0.0000       6.386745       173.7922 
  70   0.0000       6.386745       173.7922 
  71   0.0000       6.752870       183.7549 
  72   0.0000      31.722776       863.2206 
  73   0.0000      32.442668       882.8099 

                    ********************************
                    * MULLIKEN POPULATION ANALYSIS *
                    ********************************

-----------------------
MULLIKEN ATOMIC CHARGES
-----------------------
   0 N :    0.000002
   1 N :   -0.000002
Sum of atomic charges:    0.0000000

--------------------------------
MULLIKEN REDUCED ORBITAL CHARGES
--------------------------------
  0 N s       :     3.824156  s :     3.824156
      pz      :     1.163070  p :     3.101756
      px      :     0.969343
      py      :     0.969343
      dz2     :     0.011931  d :     0.068830
      dxz     :     0.028450
      dyz     :     0.028450
      dx2y2   :     0.000000
      dxy     :     0.000000
      f0      :     0.000841  f :     0.005256
      f+1     :     0.002208
      f-1     :     0.002208
      f+2     :     0.000000
      f-2     :     0.000000
      f+3     :     0.000000
      f-3     :     0.000000
  1 N s       :     3.824159  s :     3.824159
      pz      :     1.163070  p :     3.101756
      px      :     0.969343
      py      :     0.969343
      dz2     :     0.011931  d :     0.068830
      dxz     :     0.028450
      dyz     :     0.028450
      dx2y2   :     0.000000
      dxy     :     0.000000
      f0      :     0.000841  f :     0.005256
      f+1     :     0.002208
      f-1     :     0.002208
      f+2     :     0.000000
      f-2     :     0.000000
      f+3     :     0.000000
      f-3     :     0.000000


                     *******************************
                     * LOEWDIN POPULATION ANALYSIS *
                     *******************************

----------------------
LOEWDIN ATOMIC CHARGES
----------------------
   0 N :    0.000000
   1 N :   -0.000000

-------------------------------
LOEWDIN REDUCED ORBITAL CHARGES
-------------------------------
  0 N s       :     3.381180  s :     3.381180
      pz      :     1.450244  p :     3.310955
      px      :     0.930356
      py      :     0.930356
      dz2     :     0.158266  d :     0.281492
      dxz     :     0.061613
      dyz     :     0.061613
      dx2y2   :     0.000000
      dxy     :     0.000000
      f0      :     0.010309  f :     0.026372
      f+1     :     0.008031
      f-1     :     0.008031
      f+2     :     0.000000
      f-2     :     0.000000
      f+3     :     0.000000
      f-3     :     0.000000
  1 N s       :     3.381180  s :     3.381180
      pz      :     1.450244  p :     3.310955
      px      :     0.930356
      py      :     0.930356
      dz2     :     0.158266  d :     0.281492
      dxz     :     0.061613
      dyz     :     0.061613
      dx2y2   :     0.000000
      dxy     :     0.000000
      f0      :     0.010309  f :     0.026372
      f+1     :     0.008031
      f-1     :     0.008031
      f+2     :     0.000000
      f-2     :     0.000000
      f+3     :     0.000000
      f-3     :     0.000000


                      *****************************
                      * MAYER POPULATION ANALYSIS *
                      *****************************

  NA   - Mulliken gross atomic population
  ZA   - Total nuclear charge
  QA   - Mulliken gross atomic charge
  VA   - Mayer's total valence
  BVA  - Mayer's bonded valence
  FA   - Mayer's free valence

  ATOM       NA         ZA         QA         VA         BVA        FA
  0 N      7.0000     7.0000     0.0000     2.7934     2.7934     0.0000
  1 N      7.0000     7.0000    -0.0000     2.7934     2.7934     0.0000

  Mayer bond orders larger than 0.100000
B(  0-N ,  1-N ) :   2.7934 

-------
TIMINGS
-------

Total SCF time: 0 days 0 hours 0 min 1 sec 

Total time                  ....       1.455 sec
Sum of individual times     ....       1.271 sec  ( 87.4%)

Fock matrix formation       ....       1.058 sec  ( 72.7%)
  XC integration            ....       0.078 sec  (  7.4% of F)
    Basis function eval.    ....       0.010 sec  ( 13.3% of XC)
    Density eval.           ....       0.006 sec  (  7.8% of XC)
    XC-Functional eval.     ....       0.008 sec  ( 10.0% of XC)
    XC-Potential eval.      ....       0.009 sec  ( 11.4% of XC)
Diagonalization             ....       0.005 sec  (  0.3%)
Density matrix formation    ....       0.002 sec  (  0.1%)
Population analysis         ....       0.002 sec  (  0.2%)
Initial guess               ....       0.086 sec  (  5.9%)
Orbital Transformation      ....       0.000 sec  (  0.0%)
Orbital Orthonormalization  ....       0.000 sec  (  0.0%)
DIIS solution               ....       0.003 sec  (  0.2%)
SOSCF solution              ....       0.002 sec  (  0.1%)
Grid generation             ....       0.113 sec  (  7.8%)

-------------------------   --------------------
FINAL SINGLE POINT ENERGY      -109.539956299914
-------------------------   --------------------


                            ***************************************
                            *     ORCA property calculations      *
                            ***************************************

                                    ---------------------
                                    Active property flags
                                    ---------------------
   (+) Dipole Moment


------------------------------------------------------------------------------
                       ORCA ELECTRIC PROPERTIES CALCULATION
------------------------------------------------------------------------------

Dipole Moment Calculation                       ... on
Quadrupole Moment Calculation                   ... off
Polarizability Calculation                      ... off
GBWName                                         ... 171_n.gbw
Electron density file                           ... 171_n.scfp
The origin for moment calculation is the CENTER OF MASS  = ( 0.000000,  0.000000  0.000000)

-------------
DIPOLE MOMENT
-------------
                                X             Y             Z
Electronic contribution:      0.00000       0.00000       0.00000
Nuclear contribution   :      0.00000       0.00000       0.00000
                        -----------------------------------------
Total Dipole Moment    :      0.00000       0.00000       0.00000
                        -----------------------------------------
Magnitude (a.u.)       :      0.00000
Magnitude (Debye)      :      0.00000



--------------------
Rotational spectrum 
--------------------
 
Rotational constants in cm-1:     0.000000     1.972963     1.972963 
Rotational constants in MHz :     0.000000 59147.933340 59147.933340 

 Dipole components along the rotational axes: 
x,y,z [a.u.] :     0.000000     0.000000     0.000000 
x,y,z [Debye]:     0.000000     0.000000     0.000000 

 

Timings for individual modules:

Sum of individual times         ...        2.480 sec (=   0.041 min)
GTO integral calculation        ...        0.655 sec (=   0.011 min)  26.4 %
SCF iterations                  ...        1.825 sec (=   0.030 min)  73.6 %
                             ****ORCA TERMINATED NORMALLY****
TOTAL RUN TIME: 0 days 0 hours 0 minutes 2 seconds 929 msec
