
                                 *****************
                                 * O   R   C   A *
                                 *****************

           --- An Ab Initio, DFT and Semiempirical electronic structure package ---

                  #######################################################
                  #                        -***-                        #
                  #          Department of theory and spectroscopy      #
                  #               Directorship: Frank Neese             #
                  #        Max Planck Institute fuer Kohlenforschung    #
                  #                Kaiser Wilhelm Platz 1               #
                  #                 D-45470 Muelheim/Ruhr               #
                  #                      Germany                        #
                  #                                                     #
                  #                  All rights reserved                #
                  #                        -***-                        #
                  #######################################################


                         Program Version 4.2.0 -  RELEASE  -


 With contributions from (in alphabetic order):
   Daniel Aravena         : Magnetic Suceptibility
   Michael Atanasov       : Ab Initio Ligand Field Theory (pilot matlab implementation)
   Alexander A. Auer      : GIAO ZORA, VPT2
   Ute Becker             : Parallelization
   Giovanni Bistoni       : ED, misc. LED, open-shell LED, HFLED
   Martin Brehm           : Molecular dynamics
   Dmytro Bykov           : SCF Hessian
   Vijay G. Chilkuri      : MRCI spin determinant printing, contributions to CSF-ICE
   Dipayan Datta          : RHF DLPNO-CCSD density
   Achintya Kumar Dutta   : EOM-CC, STEOM-CC
   Dmitry Ganyushin       : Spin-Orbit,Spin-Spin,Magnetic field MRCI
   Miquel Garcia          : C-PCM Hessian, Gaussian charge scheme
   Yang Guo               : DLPNO-NEVPT2, CIM, IAO-localization
   Andreas Hansen         : Spin unrestricted coupled pair/coupled cluster methods
   Benjamin Helmich-Paris : CASSCF linear response (MC-RPA)
   Lee Huntington         : MR-EOM, pCC
   Robert Izsak           : Overlap fitted RIJCOSX, COSX-SCS-MP3, EOM
   Christian Kollmar      : KDIIS, OOCD, Brueckner-CCSD(T), CCSD density
   Simone Kossmann        : Meta GGA functionals, TD-DFT gradient, OOMP2, MP2 Hessian
   Martin Krupicka        : AUTO-CI
   Lucas Lang             : DCDCAS
   Dagmar Lenk            : GEPOL surface, SMD
   Dimitrios Liakos       : Extrapolation schemes; Compound Job, initial MDCI parallelization
   Dimitrios Manganas     : Further ROCIS development; embedding schemes
   Dimitrios Pantazis     : SARC Basis sets
   Taras Petrenko         : DFT Hessian,TD-DFT gradient, ASA, ECA, R-Raman, ABS, FL, XAS/XES, NRVS
   Peter Pinski           : DLPNO-MP2, DLPNO-MP2 Gradient
   Christoph Reimann      : Effective Core Potentials
   Marius Retegan         : Local ZFS, SOC
   Christoph Riplinger    : Optimizer, TS searches, QM/MM, DLPNO-CCSD(T), (RO)-DLPNO pert. Triples
   Tobias Risthaus        : Range-separated hybrids, TD-DFT gradient, RPA, STAB
   Michael Roemelt        : Original ROCIS implementation
   Masaaki Saitow         : Open-shell DLPNO-CCSD energy and density
   Barbara Sandhoefer     : DKH picture change effects
   Avijit Sen             : IP-ROCIS
   Kantharuban Sivalingam : CASSCF convergence, NEVPT2, FIC-MRCI
   Bernardo de Souza      : ESD, SOC TD-DFT
   Georgi Stoychev        : AutoAux, RI-MP2 NMR
   Willem Van den Heuvel  : Paramagnetic NMR
   Boris Wezisla          : Elementary symmetry handling
   Frank Wennmohs         : Technical directorship


 We gratefully acknowledge several colleagues who have allowed us to
 interface, adapt or use parts of their codes:
   Stefan Grimme, W. Hujo, H. Kruse,             : VdW corrections, initial TS optimization,
                  C. Bannwarth                     DFT functionals, gCP, sTDA/sTD-DF
   Ed Valeev, F. Pavosevic, A. Kumar             : LibInt (2-el integral package), F12 methods
   Garnet Chan, S. Sharma, J. Yang, R. Olivares  : DMRG
   Ulf Ekstrom                                   : XCFun DFT Library
   Mihaly Kallay                                 : mrcc  (arbitrary order and MRCC methods)
   Andreas Klamt, Michael Diedenhofen            : otool_cosmo (COSMO solvation model)
   Jiri Pittner, Ondrej Demel                    : Mk-CCSD
   Frank Weinhold                                : gennbo (NPA and NBO analysis)
   Christopher J. Cramer and Donald G. Truhlar   : smd solvation model
   Lars Goerigk                                  : TD-DFT with DH, B97 family of functionals
   V. Asgeirsson, H. Jonsson                     : NEB implementation
   FAccTs GmbH                                   : IRC, NEB, NEB-TS, Multilevel, MM, QM/MM, CI optimization
   S Lehtola, MJT Oliveira, MAL Marques          : LibXC Library


 Your calculation uses the libint2 library for the computation of 2-el integrals
 For citations please refer to: http://libint.valeyev.net

 Your ORCA version has been built with support for libXC version: 4.2.3
 For citations please refer to: https://tddft.org/programs/libxc/

 This ORCA versions uses:
   CBLAS   interface :  Fast vector & matrix operations
   LAPACKE interface :  Fast linear algebra routines
   SCALAPACK package :  Parallel linear algebra routines


Your calculation utilizes the DFT-NL dispersion correction.
Cite in your paper:
Vydrov, O. A.; Van Voorhis, T. J. Chem. Phys. 2010, 133, 244103
Hujo, W.; Grimme, S. J. Chem. Theory Comput. 2011, 7, 3866 
   

----- Orbital basis set information -----
Your calculation utilizes the basis: def2-TZVPPD
   F. Weigend and R. Ahlrichs, Phys. Chem. Chem. Phys. 7, 3297 (2005).
   D. Rappoport and F. Furche, J. Chem. Phys. 133 134105 (2010).

----- AuxJK basis set information -----
Your calculation utilizes the auxiliary basis: def2/JK
   H-Ba, Hf-Rn: F. Weigend, J. Comput. Chem. 29, 167 (2008).

================================================================================
                                        WARNINGS
                       Please study these warnings very carefully!
================================================================================


WARNING: your system is open-shell and RHF/RKS was chosen
  ===> : WILL SWITCH to UHF/UKS


INFO   : the flag for use of LIBINT has been found!

================================================================================
                                       INPUT FILE
================================================================================
NAME = 172_o.in
|  1> #
|  2> # 172_o wB97X-V/Def2-TZVPPD
|  3> #
|  4> ! wb97x-v def2-tzvppd def2/jk grid4 nofinalgrid
|  5> 
|  6> *xyz 0 3
|  7> O          0.00000        0.00000        0.61122
|  8> O          0.00000        0.00000       -0.61122
|  9> *
| 10> 
| 11> %maxcore 5000
| 12> 
| 13> %pal
| 14> nprocs = 24
| 15> end
| 16> 
| 17> 
| 18>                          ****END OF INPUT****
================================================================================

                       ****************************
                       * Single Point Calculation *
                       ****************************

---------------------------------
CARTESIAN COORDINATES (ANGSTROEM)
---------------------------------
  O      0.000000    0.000000    0.611220
  O      0.000000    0.000000   -0.611220

----------------------------
CARTESIAN COORDINATES (A.U.)
----------------------------
  NO LB      ZA    FRAG     MASS         X           Y           Z
   0 O     8.0000    0    15.999    0.000000    0.000000    1.155038
   1 O     8.0000    0    15.999    0.000000    0.000000   -1.155038

--------------------------------
INTERNAL COORDINATES (ANGSTROEM)
--------------------------------
 O      0   0   0     0.000000000000     0.00000000     0.00000000
 O      1   0   0     1.222440000000     0.00000000     0.00000000

---------------------------
INTERNAL COORDINATES (A.U.)
---------------------------
 O      0   0   0     0.000000000000     0.00000000     0.00000000
 O      1   0   0     2.310076815151     0.00000000     0.00000000

---------------------
BASIS SET INFORMATION
---------------------
There are 1 groups of distinct atoms

 Group   1 Type O   : 12s7p3d1f contracted to 6s4p3d1f pattern {621111/4111/111/1}

Atom   0O    basis set group =>   1
Atom   1O    basis set group =>   1
----------------------------------
AUXILIARY/JK BASIS SET INFORMATION
----------------------------------
There are 1 groups of distinct atoms

 Group   1 Type O   : 14s10p6d2f1g contracted to 10s8p4d2f1g pattern {5111111111/31111111/3111/11/1}

Atom   0O    basis set group =>   1
Atom   1O    basis set group =>   1


           ************************************************************
           *        Program running with 24 parallel MPI-processes    *
           *              working on a common directory               *
           ************************************************************
------------------------------------------------------------------------------
                           ORCA GTO INTEGRAL CALCULATION
------------------------------------------------------------------------------

                         BASIS SET STATISTICS AND STARTUP INFO

 # of primitive gaussian shells          ...   46
 # of primitive gaussian functions       ...  110
 # of contracted shells                  ...   28
 # of contracted basis functions         ...   80
 Highest angular momentum                ...    3
 Maximum contraction depth               ...    6
 Integral package used                   ... LIBINT
 Integral threshhold            Thresh   ...  1.000e-10
 Primitive cut-off              TCut     ...  1.000e-11


------------------------------ INTEGRAL EVALUATION ----------------------------


 * One electron integrals 
 Pre-screening matrix                    ... done
 Shell pair data                         ... done (   0.000 sec)



           ************************************************************
           *        Program running with 24 parallel MPI-processes    *
           *              working on a common directory               *
           ************************************************************
-------------------------------------------------------------------------------
                                 ORCA SCF
-------------------------------------------------------------------------------

------------
SCF SETTINGS
------------
Hamiltonian:
 Density Functional     Method          .... DFT(GTOs)
 Exchange Functional    Exchange        .... WB97X-V
 Correlation Functional Correlation     .... WB97X-V
 Gradients option       PostSCFGGA      .... off
 Hybrid DFT is turned on
   Fraction HF Exchange ScalHFX         ....  0.167000
   Scaling of DF-GGA-X  ScalDFX         ....  0.000000
   Scaling of DF-GGA-C  ScalDFC         ....  1.000000
   Scaling of DF-LDA-C  ScalLDAC        ....  1.000000
   Perturbative correction              ....  0.000000
   Density functional embedding theory  .... OFF
 Long-range corrected/Screened/Range-Separated Hybrid DFT is turned on
   Amount of maximum screened exact exchange              ....  0.833000
   Range separation parameter mu (erf(mu*r12)/r12)        ....  0.300000
   NL short-range parameter             ....  6.000000
   NL long-range parameter              ....  0.010000


General Settings:
 Integral files         IntName         .... 172_o
 Hartree-Fock type      HFTyp           .... UHF
 Total Charge           Charge          ....    0
 Multiplicity           Mult            ....    3
 Number of Electrons    NEL             ....   16
 Basis Dimension        Dim             ....   80
 Nuclear Repulsion      ENuc            ....     27.7047064324 Eh

Convergence Acceleration:
 DIIS                   CNVDIIS         .... on
   Start iteration      DIISMaxIt       ....    12
   Startup error        DIISStart       ....  0.200000
   # of expansion vecs  DIISMaxEq       ....     5
   Bias factor          DIISBfac        ....   1.050
   Max. coefficient     DIISMaxC        ....  10.000
 Newton-Raphson         CNVNR           .... off
 SOSCF                  CNVSOSCF        .... off
 Level Shifting         CNVShift        .... on
   Level shift para.    LevelShift      ....    0.2500
   Turn off err/grad.   ShiftErr        ....    0.0010
 Zerner damping         CNVZerner       .... off
 Static damping         CNVDamp         .... on
   Fraction old density DampFac         ....    0.7000
   Max. Damping (<1)    DampMax         ....    0.9800
   Min. Damping (>=0)   DampMin         ....    0.0000
   Turn off err/grad.   DampErr         ....    0.1000
 Fernandez-Rico         CNVRico         .... off

SCF Procedure:
 Maximum # iterations   MaxIter         ....   125
 SCF integral mode      SCFMode         .... Direct
   Integral package                     .... LIBINT
 Reset frequency        DirectResetFreq ....    20
 Integral Threshold     Thresh          ....  1.000e-10 Eh
 Primitive CutOff       TCut            ....  1.000e-11 Eh

Convergence Tolerance:
 Convergence Check Mode ConvCheckMode   .... Total+1el-Energy
 Convergence forced     ConvForced      .... 0
 Energy Change          TolE            ....  1.000e-06 Eh
 1-El. energy change                    ....  1.000e-03 Eh
 DIIS Error             TolErr          ....  1.000e-06


Diagonalization of the overlap matrix:
Smallest eigenvalue                        ... 2.637e-04
Time for diagonalization                   ...    0.003 sec
Threshold for overlap eigenvalues          ... 1.000e-08
Number of eigenvalues below threshold      ... 0
Time for construction of square roots      ...    0.001 sec
Total time needed                          ...    0.004 sec

-------------------
DFT GRID GENERATION
-------------------

General Integration Accuracy     IntAcc      ...  4.670
Radial Grid Type                 RadialGrid  ... Gauss-Chebyshev
Angular Grid (max. acc.)         AngularGrid ... Lebedev-302
Angular grid pruning method      GridPruning ... 3 (G Style)
Weight generation scheme         WeightScheme... Becke
Basis function cutoff            BFCut       ...    1.0000e-10
Integration weight cutoff        WCut        ...    1.0000e-14
Grids for H and He will be reduced by one unit

# of grid points (after initial pruning)     ...  12424 (   0.0 sec)
# of grid points (after weights+screening)   ...  12396 (   0.0 sec)
nearest neighbour list constructed           ...    0.0 sec
Grid point re-assignment to atoms done       ...    0.0 sec
Grid point division into batches done        ...    0.1 sec
Reduced shell lists constructed in    0.1 sec

Total number of grid points                  ...    12396
Total number of batches                      ...      194
Average number of points per batch           ...       63
Average number of grid points per atom       ...     6198
Average number of shells per batch           ...     8.20 (29.29%)
Average number of basis functions per batch  ...    22.00 (27.50%)
Average number of large shells per batch     ...     4.90 (59.76%)
Average number of large basis fcns per batch ...    13.70 (62.27%)
Maximum spatial batch extension              ...  19.94, 19.94, 11.34 au
Average spatial batch extension              ...   0.68,  0.68,  0.45 au

Time for grid setup =    0.107 sec

------------------------------
INITIAL GUESS: MODEL POTENTIAL
------------------------------
Loading Hartree-Fock densities                     ... done
Calculating cut-offs                               ... done
Setting up the integral package                    ... done
Initializing the effective Hamiltonian             ... done
Starting the Coulomb interaction                   ... done (   0.0 sec)
Reading the grid                                   ... done
Mapping shells                                     ... done
Starting the XC term evaluation                    ... done (   0.0 sec)
  promolecular density results
     # of electrons  =     15.999997739
     EX              =    -11.364583411
     EC              =     -0.705710297
     EX+EC           =    -12.070293708
Transforming the Hamiltonian                       ... done (   0.0 sec)
Diagonalizing the Hamiltonian                      ... done (   0.0 sec)
Back transforming the eigenvectors                 ... done (   0.0 sec)
Now organizing SCF variables                       ... done
                      ------------------
                      INITIAL GUESS DONE (   0.2 sec)
                      ------------------
--------------
SCF ITERATIONS
--------------
ITER       Energy         Delta-E        Max-DP      RMS-DP      [F,P]     Damp
               ***  Starting incremental Fock matrix formation  ***
  0   -150.2609410144   0.000000000000 0.02819660  0.00126942  0.3632337 0.7000
  1   -150.3147771964  -0.053836181998 0.02385638  0.00107546  0.2384167 0.7000
                               ***Turning on DIIS***
  2   -150.3451392881  -0.030362091648 0.01776104  0.00078889  0.1562527 0.7000
  3   -150.3637840791  -0.018644790986 0.01312541  0.00058557  0.1035871 0.7000
  4   -150.3763888909  -0.012604811849 0.03525211  0.00151069  0.0718657 0.0000
  5   -150.4061383894  -0.029749498440 0.00526230  0.00019849  0.0033972 0.0000
  6   -150.4063488937  -0.000210504363 0.00313836  0.00011443  0.0015208 0.0000
  7   -150.4064038998  -0.000055006052 0.00212595  0.00007608  0.0005948 0.0000
  8   -150.4064140206  -0.000010120792 0.00018112  0.00000671  0.0000610 0.0000
                 **** Energy Check signals convergence ****

               *****************************************************
               *                     SUCCESS                       *
               *           SCF CONVERGED AFTER   9 CYCLES          *
               *****************************************************


Setting up the DFT-NL grid :

General Integration Accuracy     IntAcc      ...  4.340
Radial Grid Type                 RadialGrid  ... Gauss-Chebyshev
Angular Grid (max. acc.)         AngularGrid ... Lebedev-110
Angular grid pruning method      GridPruning ... 3 (G Style)
Weight generation scheme         WeightScheme... Becke
Basis function cutoff            BFCut       ...    1.0000e-10
Integration weight cutoff        WCut        ...    1.0000e-14
Grids for H and He will be reduced by one unit

# of grid points (after initial pruning)     ...   3432 (   0.0 sec)
# of grid points (after weights+screening)   ...   3408 (   0.0 sec)
nearest neighbour list constructed           ...    0.0 sec
Grid point re-assignment to atoms done       ...    0.0 sec
Grid point division into batches done        ...    0.0 sec
Reduced shell lists constructed in    0.0 sec

Total number of grid points                  ...     3408
Total number of batches                      ...       54
Average number of points per batch           ...       63
Average number of grid points per atom       ...     1704
Average number of shells per batch           ...    14.00 (50.00%)
Average number of basis functions per batch  ...    41.00 (51.25%)
Average number of large shells per batch     ...    12.00 (85.71%)
Average number of large basis fcns per batch ...    33.00 (80.49%)
Maximum spatial batch extension              ...  15.77, 25.65, 13.85 au
Average spatial batch extension              ...   0.81,  1.21,  0.76 au

Final grid set up in    0.0 sec

-------------------------------------------------------------------------------
                         DFT-NL dispersion correction                          
-------------------------------------------------------------------------------

SC Energy -150.406414099 
NL    Energy 0.067730795 
SC+NL Energy -150.338683304 
NL done in    0.0 sec
-------------------------------------------------------------------------------

----------------
TOTAL SCF ENERGY
----------------

Total Energy       :         -150.33868330 Eh           -4090.92355 eV

Components:
Nuclear Repulsion  :           27.70470643 Eh             753.88339 eV
Electronic Energy  :         -178.04338974 Eh           -4844.80694 eV
One Electron Energy:         -261.12047423 Eh           -7105.44934 eV
Two Electron Energy:           83.07708449 Eh            2260.64240 eV

Virial components:
Potential Energy   :         -300.19428747 Eh           -8168.70185 eV
Kinetic Energy     :          149.85560416 Eh            4077.77830 eV
Virial Ratio       :            2.00322363


DFT components:
N(Alpha)           :        9.000000386532 electrons
N(Beta)            :        7.000000672380 electrons
N(Total)           :       16.000001058912 electrons
E(X)               :      -11.485267037106 Eh       
E(C)               :       -0.695189817647 Eh       
NL Energy, E(C,NL) :        0.067730794846 Eh       
E(XC)              :      -12.112726059908 Eh       
DFET-embed. en.    :        0.000000000000 Eh       

---------------
SCF CONVERGENCE
---------------

  Last Energy change         ...   -7.8338e-08  Tolerance :   1.0000e-06
  Last MAX-Density change    ...    8.8303e-06  Tolerance :   1.0000e-05
  Last RMS-Density change    ...    5.4688e-07  Tolerance :   1.0000e-06
  Last DIIS Error            ...    8.2088e-06  Tolerance :   1.0000e-06

             **** THE GBW FILE WAS UPDATED (172_o.gbw) ****
             **** DENSITY FILE WAS UPDATED (172_o.scfp) ****
             **** ENERGY FILE WAS UPDATED (172_o.en.tmp) ****
----------------------
UHF SPIN CONTAMINATION
----------------------

Warning: in a DFT calculation there is little theoretical justification to 
         calculate <S**2> as in Hartree-Fock theory. We will do it anyways
         but you should keep in mind that the values have only limited relevance

Expectation value of <S**2>     :     2.009677
Ideal value S*(S+1) for S=1.0   :     2.000000
Deviation                       :     0.009677

             **** THE GBW FILE WAS UPDATED (172_o.gbw) ****
             **** DENSITY FILE WAS UPDATED (172_o.scfp) ****
----------------
ORBITAL ENERGIES
----------------
                 SPIN UP ORBITALS
  NO   OCC          E(Eh)            E(eV) 
   0   1.0000     -19.380938      -527.3821 
   1   1.0000     -19.380863      -527.3801 
   2   1.0000      -1.431951       -38.9654 
   3   1.0000      -0.977518       -26.5996 
   4   1.0000      -0.684035       -18.6135 
   5   1.0000      -0.684035       -18.6135 
   6   1.0000      -0.669653       -18.2222 
   7   1.0000      -0.431874       -11.7519 
   8   1.0000      -0.431874       -11.7519 
   9   0.0000       0.080472         2.1898 
  10   0.0000       0.111500         3.0341 
  11   0.0000       0.120989         3.2923 
  12   0.0000       0.120989         3.2923 
  13   0.0000       0.160692         4.3727 
  14   0.0000       0.160692         4.3727 
  15   0.0000       0.164154         4.4668 
  16   0.0000       0.249631         6.7928 
  17   0.0000       0.355254         9.6670 
  18   0.0000       0.393859        10.7174 
  19   0.0000       0.393859        10.7174 
  20   0.0000       0.481422        13.1002 
  21   0.0000       0.529066        14.3966 
  22   0.0000       0.534141        14.5347 
  23   0.0000       0.534141        14.5347 
  24   0.0000       0.547179        14.8895 
  25   0.0000       0.547179        14.8895 
  26   0.0000       0.564673        15.3655 
  27   0.0000       0.564673        15.3655 
  28   0.0000       0.619246        16.8506 
  29   0.0000       0.619246        16.8506 
  30   0.0000       0.702826        19.1249 
  31   0.0000       0.860428        23.4134 
  32   0.0000       0.976550        26.5733 
  33   0.0000       0.976550        26.5733 
  34   0.0000       0.984352        26.7856 
  35   0.0000       1.305860        35.5343 
  36   0.0000       1.555238        42.3202 
  37   0.0000       1.555238        42.3202 
  38   0.0000       1.568342        42.6768 
  39   0.0000       1.568343        42.6768 
  40   0.0000       1.881013        51.1850 
  41   0.0000       1.881013        51.1850 
  42   0.0000       2.019174        54.9445 
  43   0.0000       2.221322        60.4453 
  44   0.0000       2.221322        60.4453 
  45   0.0000       2.478122        67.4331 
  46   0.0000       2.611520        71.0631 
  47   0.0000       2.611520        71.0631 
  48   0.0000       2.894736        78.7698 
  49   0.0000       3.101113        84.3856 
  50   0.0000       3.101113        84.3856 
  51   0.0000       3.198114        87.0251 
  52   0.0000       3.305817        89.9558 
  53   0.0000       4.357035       118.5610 
  54   0.0000       4.672824       127.1540 
  55   0.0000       4.672824       127.1540 
  56   0.0000       4.775919       129.9594 
  57   0.0000       4.775919       129.9594 
  58   0.0000       4.996675       135.9664 
  59   0.0000       4.996675       135.9664 
  60   0.0000       5.063424       137.7828 
  61   0.0000       5.221181       142.0756 
  62   0.0000       5.221181       142.0756 
  63   0.0000       5.751016       156.4931 
  64   0.0000       5.751017       156.4931 
  65   0.0000       6.267227       170.5399 
  66   0.0000       6.267237       170.5402 
  67   0.0000       6.352791       172.8682 
  68   0.0000       6.352791       172.8682 
  69   0.0000       6.434515       175.0920 
  70   0.0000       6.434523       175.0923 
  71   0.0000       6.562292       178.5690 
  72   0.0000       6.562292       178.5690 
  73   0.0000       6.568875       178.7482 
  74   0.0000       7.264065       197.6653 
  75   0.0000       7.264065       197.6653 
  76   0.0000       7.500540       204.1001 
  77   0.0000       8.726213       237.4523 
  78   0.0000      43.373547      1180.2542 
  79   0.0000      44.032171      1198.1763 

                 SPIN DOWN ORBITALS
  NO   OCC          E(Eh)            E(eV) 
   0   1.0000     -19.355362      -526.6862 
   1   1.0000     -19.355068      -526.6782 
   2   1.0000      -1.375781       -37.4369 
   3   1.0000      -0.885977       -24.1087 
   4   1.0000      -0.629527       -17.1303 
   5   1.0000      -0.574731       -15.6392 
   6   1.0000      -0.574731       -15.6392 
   7   0.0000      -0.025803        -0.7021 
   8   0.0000      -0.025803        -0.7021 
   9   0.0000       0.083872         2.2823 
  10   0.0000       0.115635         3.1466 
  11   0.0000       0.125030         3.4022 
  12   0.0000       0.125030         3.4022 
  13   0.0000       0.164969         4.4890 
  14   0.0000       0.168236         4.5779 
  15   0.0000       0.168236         4.5779 
  16   0.0000       0.269316         7.3285 
  17   0.0000       0.382249        10.4015 
  18   0.0000       0.396873        10.7995 
  19   0.0000       0.396873        10.7995 
  20   0.0000       0.483032        13.1440 
  21   0.0000       0.538104        14.6426 
  22   0.0000       0.548617        14.9286 
  23   0.0000       0.548617        14.9286 
  24   0.0000       0.551899        15.0179 
  25   0.0000       0.551899        15.0179 
  26   0.0000       0.570846        15.5335 
  27   0.0000       0.570846        15.5335 
  28   0.0000       0.644139        17.5279 
  29   0.0000       0.644139        17.5279 
  30   0.0000       0.715665        19.4742 
  31   0.0000       0.872368        23.7383 
  32   0.0000       0.985613        26.8199 
  33   0.0000       0.995893        27.0996 
  34   0.0000       0.995893        27.0996 
  35   0.0000       1.321742        35.9664 
  36   0.0000       1.584375        43.1130 
  37   0.0000       1.584375        43.1130 
  38   0.0000       1.604439        43.6590 
  39   0.0000       1.604440        43.6590 
  40   0.0000       1.935789        52.6755 
  41   0.0000       1.935790        52.6755 
  42   0.0000       2.044068        55.6219 
  43   0.0000       2.257662        61.4341 
  44   0.0000       2.257662        61.4341 
  45   0.0000       2.498471        67.9868 
  46   0.0000       2.682280        72.9886 
  47   0.0000       2.682280        72.9886 
  48   0.0000       2.935358        79.8751 
  49   0.0000       3.164071        86.0987 
  50   0.0000       3.164071        86.0987 
  51   0.0000       3.230104        87.8956 
  52   0.0000       3.347560        91.0917 
  53   0.0000       4.386514       119.3631 
  54   0.0000       4.711421       128.2043 
  55   0.0000       4.711421       128.2043 
  56   0.0000       4.805837       130.7735 
  57   0.0000       4.805837       130.7735 
  58   0.0000       5.059743       137.6826 
  59   0.0000       5.059743       137.6826 
  60   0.0000       5.104489       138.9002 
  61   0.0000       5.287626       143.8836 
  62   0.0000       5.287626       143.8836 
  63   0.0000       5.800982       157.8527 
  64   0.0000       5.800983       157.8528 
  65   0.0000       6.371079       173.3659 
  66   0.0000       6.371089       173.3661 
  67   0.0000       6.414762       174.5545 
  68   0.0000       6.414762       174.5545 
  69   0.0000       6.533893       177.7963 
  70   0.0000       6.533903       177.7965 
  71   0.0000       6.615910       180.0281 
  72   0.0000       6.622381       180.2042 
  73   0.0000       6.622381       180.2042 
  74   0.0000       7.300027       198.6438 
  75   0.0000       7.300027       198.6438 
  76   0.0000       7.537435       205.1040 
  77   0.0000       8.761026       238.3996 
  78   0.0000      43.405397      1181.1209 
  79   0.0000      44.063160      1199.0195 

                    ********************************
                    * MULLIKEN POPULATION ANALYSIS *
                    ********************************

--------------------------------------------
MULLIKEN ATOMIC CHARGES AND SPIN POPULATIONS
--------------------------------------------
   0 O :    0.000000    1.000000
   1 O :   -0.000000    1.000000
Sum of atomic charges         :   -0.0000000
Sum of atomic spin populations:    2.0000000

-----------------------------------------------------
MULLIKEN REDUCED ORBITAL CHARGES AND SPIN POPULATIONS
-----------------------------------------------------
CHARGE
  0 O s       :     3.931618  s :     3.931618
      pz      :     1.053914  p :     4.018021
      px      :     1.482054
      py      :     1.482054
      dz2     :     0.012592  d :     0.045789
      dxz     :     0.016598
      dyz     :     0.016598
      dx2y2   :     0.000000
      dxy     :     0.000000
      f0      :     0.001876  f :     0.004572
      f+1     :     0.001348
      f-1     :     0.001348
      f+2     :     0.000000
      f-2     :     0.000000
      f+3     :     0.000000
      f-3     :     0.000000
  1 O s       :     3.931618  s :     3.931618
      pz      :     1.053914  p :     4.018021
      px      :     1.482054
      py      :     1.482054
      dz2     :     0.012592  d :     0.045789
      dxz     :     0.016598
      dyz     :     0.016598
      dx2y2   :     0.000000
      dxy     :     0.000000
      f0      :     0.001876  f :     0.004572
      f+1     :     0.001348
      f-1     :     0.001348
      f+2     :     0.000000
      f-2     :     0.000000
      f+3     :     0.000000
      f-3     :     0.000000

SPIN
  0 O s       :     0.008682  s :     0.008682
      pz      :    -0.008771  p :     1.004444
      px      :     0.506608
      py      :     0.506608
      dz2     :     0.000353  d :    -0.012840
      dxz     :    -0.006596
      dyz     :    -0.006596
      dx2y2   :     0.000000
      dxy     :     0.000000
      f0      :    -0.000264  f :    -0.000287
      f+1     :    -0.000011
      f-1     :    -0.000011
      f+2     :     0.000000
      f-2     :     0.000000
      f+3     :     0.000000
      f-3     :     0.000000
  1 O s       :     0.008682  s :     0.008682
      pz      :    -0.008771  p :     1.004444
      px      :     0.506608
      py      :     0.506608
      dz2     :     0.000353  d :    -0.012840
      dxz     :    -0.006596
      dyz     :    -0.006596
      dx2y2   :     0.000000
      dxy     :     0.000000
      f0      :    -0.000264  f :    -0.000287
      f+1     :    -0.000011
      f-1     :    -0.000011
      f+2     :     0.000000
      f-2     :     0.000000
      f+3     :     0.000000
      f-3     :     0.000000


                     *******************************
                     * LOEWDIN POPULATION ANALYSIS *
                     *******************************

-------------------------------------------
LOEWDIN ATOMIC CHARGES AND SPIN POPULATIONS
-------------------------------------------
   0 O :    0.000000    1.000000
   1 O :   -0.000000    1.000000

----------------------------------------------------
LOEWDIN REDUCED ORBITAL CHARGES AND SPIN POPULATIONS
----------------------------------------------------
CHARGE
  0 O s       :     3.556156  s :     3.556156
      pz      :     1.281623  p :     4.083256
      px      :     1.400816
      py      :     1.400816
      dz2     :     0.155025  d :     0.342996
      dxz     :     0.093985
      dyz     :     0.093985
      dx2y2   :     0.000000
      dxy     :     0.000000
      f0      :     0.007196  f :     0.017592
      f+1     :     0.005198
      f-1     :     0.005198
      f+2     :     0.000000
      f-2     :     0.000000
      f+3     :     0.000000
      f-3     :     0.000000
  1 O s       :     3.556156  s :     3.556156
      pz      :     1.281623  p :     4.083256
      px      :     1.400816
      py      :     1.400816
      dz2     :     0.155025  d :     0.342996
      dxz     :     0.093985
      dyz     :     0.093985
      dx2y2   :     0.000000
      dxy     :     0.000000
      f0      :     0.007196  f :     0.017592
      f+1     :     0.005198
      f-1     :     0.005198
      f+2     :     0.000000
      f-2     :     0.000000
      f+3     :     0.000000
      f-3     :     0.000000

SPIN
  0 O s       :     0.009165  s :     0.009165
      pz      :    -0.011057  p :     0.890855
      px      :     0.450956
      py      :     0.450956
      dz2     :     0.001996  d :     0.095136
      dxz     :     0.046570
      dyz     :     0.046570
      dx2y2   :     0.000000
      dxy     :     0.000000
      f0      :    -0.000104  f :     0.004844
      f+1     :     0.002474
      f-1     :     0.002474
      f+2     :     0.000000
      f-2     :     0.000000
      f+3     :     0.000000
      f-3     :     0.000000
  1 O s       :     0.009165  s :     0.009165
      pz      :    -0.011057  p :     0.890855
      px      :     0.450956
      py      :     0.450956
      dz2     :     0.001996  d :     0.095136
      dxz     :     0.046570
      dyz     :     0.046570
      dx2y2   :     0.000000
      dxy     :     0.000000
      f0      :    -0.000104  f :     0.004844
      f+1     :     0.002474
      f-1     :     0.002474
      f+2     :     0.000000
      f-2     :     0.000000
      f+3     :     0.000000
      f-3     :     0.000000


                      *****************************
                      * MAYER POPULATION ANALYSIS *
                      *****************************

  NA   - Mulliken gross atomic population
  ZA   - Total nuclear charge
  QA   - Mulliken gross atomic charge
  VA   - Mayer's total valence
  BVA  - Mayer's bonded valence
  FA   - Mayer's free valence

  ATOM       NA         ZA         QA         VA         BVA        FA
  0 O      8.0000     8.0000     0.0000     2.2765     1.7238     0.5527
  1 O      8.0000     8.0000    -0.0000     2.2765     1.7238     0.5527

  Mayer bond orders larger than 0.100000
B(  0-O ,  1-O ) :   1.7238 

-------
TIMINGS
-------

Total SCF time: 0 days 0 hours 0 min 1 sec 

Total time                  ....       1.762 sec
Sum of individual times     ....       1.562 sec  ( 88.6%)

Fock matrix formation       ....       1.331 sec  ( 75.6%)
  XC integration            ....       0.109 sec  (  8.2% of F)
    Basis function eval.    ....       0.014 sec  ( 12.7% of XC)
    Density eval.           ....       0.012 sec  ( 11.0% of XC)
    XC-Functional eval.     ....       0.010 sec  (  9.5% of XC)
    XC-Potential eval.      ....       0.022 sec  ( 20.5% of XC)
Diagonalization             ....       0.016 sec  (  0.9%)
Density matrix formation    ....       0.004 sec  (  0.2%)
Population analysis         ....       0.004 sec  (  0.2%)
Initial guess               ....       0.082 sec  (  4.7%)
Orbital Transformation      ....       0.000 sec  (  0.0%)
Orbital Orthonormalization  ....       0.000 sec  (  0.0%)
DIIS solution               ....       0.008 sec  (  0.5%)
Grid generation             ....       0.116 sec  (  6.6%)

-------------------------   --------------------
FINAL SINGLE POINT ENERGY      -150.338683304058
-------------------------   --------------------


                            ***************************************
                            *     ORCA property calculations      *
                            ***************************************

                                    ---------------------
                                    Active property flags
                                    ---------------------
   (+) Dipole Moment


------------------------------------------------------------------------------
                       ORCA ELECTRIC PROPERTIES CALCULATION
------------------------------------------------------------------------------

Dipole Moment Calculation                       ... on
Quadrupole Moment Calculation                   ... off
Polarizability Calculation                      ... off
GBWName                                         ... 172_o.gbw
Electron density file                           ... 172_o.scfp
The origin for moment calculation is the CENTER OF MASS  = ( 0.000000,  0.000000  0.000000)

-------------
DIPOLE MOMENT
-------------
                                X             Y             Z
Electronic contribution:      0.00000       0.00000      -0.00000
Nuclear contribution   :      0.00000       0.00000       0.00000
                        -----------------------------------------
Total Dipole Moment    :      0.00000       0.00000      -0.00000
                        -----------------------------------------
Magnitude (a.u.)       :      0.00000
Magnitude (Debye)      :      0.00000



--------------------
Rotational spectrum 
--------------------
 
Rotational constants in cm-1:     0.000000     1.410194     1.410194 
Rotational constants in MHz :     0.000000 42276.561443 42276.561443 

 Dipole components along the rotational axes: 
x,y,z [a.u.] :    -0.000000     0.000000     0.000000 
x,y,z [Debye]:    -0.000000     0.000000     0.000000 

 

Timings for individual modules:

Sum of individual times         ...        2.814 sec (=   0.047 min)
GTO integral calculation        ...        0.657 sec (=   0.011 min)  23.3 %
SCF iterations                  ...        2.157 sec (=   0.036 min)  76.7 %
                             ****ORCA TERMINATED NORMALLY****
TOTAL RUN TIME: 0 days 0 hours 0 minutes 3 seconds 259 msec
