
                                 *****************
                                 * O   R   C   A *
                                 *****************

           --- An Ab Initio, DFT and Semiempirical electronic structure package ---

                  #######################################################
                  #                        -***-                        #
                  #          Department of theory and spectroscopy      #
                  #               Directorship: Frank Neese             #
                  #        Max Planck Institute fuer Kohlenforschung    #
                  #                Kaiser Wilhelm Platz 1               #
                  #                 D-45470 Muelheim/Ruhr               #
                  #                      Germany                        #
                  #                                                     #
                  #                  All rights reserved                #
                  #                        -***-                        #
                  #######################################################


                         Program Version 4.2.0 -  RELEASE  -


 With contributions from (in alphabetic order):
   Daniel Aravena         : Magnetic Suceptibility
   Michael Atanasov       : Ab Initio Ligand Field Theory (pilot matlab implementation)
   Alexander A. Auer      : GIAO ZORA, VPT2
   Ute Becker             : Parallelization
   Giovanni Bistoni       : ED, misc. LED, open-shell LED, HFLED
   Martin Brehm           : Molecular dynamics
   Dmytro Bykov           : SCF Hessian
   Vijay G. Chilkuri      : MRCI spin determinant printing, contributions to CSF-ICE
   Dipayan Datta          : RHF DLPNO-CCSD density
   Achintya Kumar Dutta   : EOM-CC, STEOM-CC
   Dmitry Ganyushin       : Spin-Orbit,Spin-Spin,Magnetic field MRCI
   Miquel Garcia          : C-PCM Hessian, Gaussian charge scheme
   Yang Guo               : DLPNO-NEVPT2, CIM, IAO-localization
   Andreas Hansen         : Spin unrestricted coupled pair/coupled cluster methods
   Benjamin Helmich-Paris : CASSCF linear response (MC-RPA)
   Lee Huntington         : MR-EOM, pCC
   Robert Izsak           : Overlap fitted RIJCOSX, COSX-SCS-MP3, EOM
   Christian Kollmar      : KDIIS, OOCD, Brueckner-CCSD(T), CCSD density
   Simone Kossmann        : Meta GGA functionals, TD-DFT gradient, OOMP2, MP2 Hessian
   Martin Krupicka        : AUTO-CI
   Lucas Lang             : DCDCAS
   Dagmar Lenk            : GEPOL surface, SMD
   Dimitrios Liakos       : Extrapolation schemes; Compound Job, initial MDCI parallelization
   Dimitrios Manganas     : Further ROCIS development; embedding schemes
   Dimitrios Pantazis     : SARC Basis sets
   Taras Petrenko         : DFT Hessian,TD-DFT gradient, ASA, ECA, R-Raman, ABS, FL, XAS/XES, NRVS
   Peter Pinski           : DLPNO-MP2, DLPNO-MP2 Gradient
   Christoph Reimann      : Effective Core Potentials
   Marius Retegan         : Local ZFS, SOC
   Christoph Riplinger    : Optimizer, TS searches, QM/MM, DLPNO-CCSD(T), (RO)-DLPNO pert. Triples
   Tobias Risthaus        : Range-separated hybrids, TD-DFT gradient, RPA, STAB
   Michael Roemelt        : Original ROCIS implementation
   Masaaki Saitow         : Open-shell DLPNO-CCSD energy and density
   Barbara Sandhoefer     : DKH picture change effects
   Avijit Sen             : IP-ROCIS
   Kantharuban Sivalingam : CASSCF convergence, NEVPT2, FIC-MRCI
   Bernardo de Souza      : ESD, SOC TD-DFT
   Georgi Stoychev        : AutoAux, RI-MP2 NMR
   Willem Van den Heuvel  : Paramagnetic NMR
   Boris Wezisla          : Elementary symmetry handling
   Frank Wennmohs         : Technical directorship


 We gratefully acknowledge several colleagues who have allowed us to
 interface, adapt or use parts of their codes:
   Stefan Grimme, W. Hujo, H. Kruse,             : VdW corrections, initial TS optimization,
                  C. Bannwarth                     DFT functionals, gCP, sTDA/sTD-DF
   Ed Valeev, F. Pavosevic, A. Kumar             : LibInt (2-el integral package), F12 methods
   Garnet Chan, S. Sharma, J. Yang, R. Olivares  : DMRG
   Ulf Ekstrom                                   : XCFun DFT Library
   Mihaly Kallay                                 : mrcc  (arbitrary order and MRCC methods)
   Andreas Klamt, Michael Diedenhofen            : otool_cosmo (COSMO solvation model)
   Jiri Pittner, Ondrej Demel                    : Mk-CCSD
   Frank Weinhold                                : gennbo (NPA and NBO analysis)
   Christopher J. Cramer and Donald G. Truhlar   : smd solvation model
   Lars Goerigk                                  : TD-DFT with DH, B97 family of functionals
   V. Asgeirsson, H. Jonsson                     : NEB implementation
   FAccTs GmbH                                   : IRC, NEB, NEB-TS, Multilevel, MM, QM/MM, CI optimization
   S Lehtola, MJT Oliveira, MAL Marques          : LibXC Library


 Your calculation uses the libint2 library for the computation of 2-el integrals
 For citations please refer to: http://libint.valeyev.net

 Your ORCA version has been built with support for libXC version: 4.2.3
 For citations please refer to: https://tddft.org/programs/libxc/

 This ORCA versions uses:
   CBLAS   interface :  Fast vector & matrix operations
   LAPACKE interface :  Fast linear algebra routines
   SCALAPACK package :  Parallel linear algebra routines


Your calculation utilizes the DFT-NL dispersion correction.
Cite in your paper:
Vydrov, O. A.; Van Voorhis, T. J. Chem. Phys. 2010, 133, 244103
Hujo, W.; Grimme, S. J. Chem. Theory Comput. 2011, 7, 3866 
   

----- Orbital basis set information -----
Your calculation utilizes the basis: def2-TZVPPD
   F. Weigend and R. Ahlrichs, Phys. Chem. Chem. Phys. 7, 3297 (2005).
   D. Rappoport and F. Furche, J. Chem. Phys. 133 134105 (2010).

----- AuxJK basis set information -----
Your calculation utilizes the auxiliary basis: def2/JK
   H-Ba, Hf-Rn: F. Weigend, J. Comput. Chem. 29, 167 (2008).

================================================================================
                                        WARNINGS
                       Please study these warnings very carefully!
================================================================================


INFO   : the flag for use of LIBINT has been found!

================================================================================
                                       INPUT FILE
================================================================================
NAME = 177_si.in
|  1> #
|  2> # 177_si wB97X-V/Def2-TZVPPD
|  3> #
|  4> ! wb97x-v def2-tzvppd def2/jk grid4 nofinalgrid
|  5> 
|  6> *xyz 0 1
|  7> Si         0.00000        0.00000        0.00000
|  8> H         -0.86552        0.86552        0.86552
|  9> H          0.86552       -0.86552        0.86552
| 10> H         -0.86552       -0.86552       -0.86552
| 11> H          0.86552        0.86552       -0.86552
| 12> *
| 13> 
| 14> %maxcore 5000
| 15> 
| 16> %pal
| 17> nprocs = 24
| 18> end
| 19> 
| 20> 
| 21>                          ****END OF INPUT****
================================================================================

                       ****************************
                       * Single Point Calculation *
                       ****************************

---------------------------------
CARTESIAN COORDINATES (ANGSTROEM)
---------------------------------
  Si     0.000000    0.000000    0.000000
  H     -0.865520    0.865520    0.865520
  H      0.865520   -0.865520    0.865520
  H     -0.865520   -0.865520   -0.865520
  H      0.865520    0.865520   -0.865520

----------------------------
CARTESIAN COORDINATES (A.U.)
----------------------------
  NO LB      ZA    FRAG     MASS         X           Y           Z
   0 Si   14.0000    0    28.086    0.000000    0.000000    0.000000
   1 H     1.0000    0     1.008   -1.635596    1.635596    1.635596
   2 H     1.0000    0     1.008    1.635596   -1.635596    1.635596
   3 H     1.0000    0     1.008   -1.635596   -1.635596   -1.635596
   4 H     1.0000    0     1.008    1.635596    1.635596   -1.635596

--------------------------------
INTERNAL COORDINATES (ANGSTROEM)
--------------------------------
 Si     0   0   0     0.000000000000     0.00000000     0.00000000
 H      1   0   0     1.499124614967     0.00000000     0.00000000
 H      1   2   0     1.499124614967   109.47122063     0.00000000
 H      1   2   3     1.499124614967   109.47122063   120.00000000
 H      1   2   3     1.499124614967   109.47122063   240.00000000

---------------------------
INTERNAL COORDINATES (A.U.)
---------------------------
 Si     0   0   0     0.000000000000     0.00000000     0.00000000
 H      1   0   0     2.832934962908     0.00000000     0.00000000
 H      1   2   0     2.832934962908   109.47122063     0.00000000
 H      1   2   3     2.832934962908   109.47122063   120.00000000
 H      1   2   3     2.832934962908   109.47122063   240.00000000

---------------------
BASIS SET INFORMATION
---------------------
There are 2 groups of distinct atoms

 Group   1 Type Si  : 15s9p4d1f contracted to 6s5p4d1f pattern {732111/51111/1111/1}
 Group   2 Type H   : 5s3p1d contracted to 3s3p1d pattern {311/111/1}

Atom   0Si   basis set group =>   1
Atom   1H    basis set group =>   2
Atom   2H    basis set group =>   2
Atom   3H    basis set group =>   2
Atom   4H    basis set group =>   2
----------------------------------
AUXILIARY/JK BASIS SET INFORMATION
----------------------------------
There are 2 groups of distinct atoms

 Group   1 Type Si  : 16s12p10d4f1g contracted to 13s11p9d4f1g pattern {4111111111111/21111111111/211111111/1111/1}
 Group   2 Type H   : 4s2p2d contracted to 2s2p2d pattern {31/11/11}

Atom   0Si   basis set group =>   1
Atom   1H    basis set group =>   2
Atom   2H    basis set group =>   2
Atom   3H    basis set group =>   2
Atom   4H    basis set group =>   2


           ************************************************************
           *        Program running with 24 parallel MPI-processes    *
           *              working on a common directory               *
           ************************************************************
------------------------------------------------------------------------------
                           ORCA GTO INTEGRAL CALCULATION
------------------------------------------------------------------------------

                         BASIS SET STATISTICS AND STARTUP INFO

 # of primitive gaussian shells          ...   65
 # of primitive gaussian functions       ...  145
 # of contracted shells                  ...   44
 # of contracted basis functions         ...  116
 Highest angular momentum                ...    3
 Maximum contraction depth               ...    7
 Integral package used                   ... LIBINT
 Integral threshhold            Thresh   ...  1.000e-10
 Primitive cut-off              TCut     ...  1.000e-11


------------------------------ INTEGRAL EVALUATION ----------------------------


 * One electron integrals 
 Pre-screening matrix                    ... done
 Shell pair data                         ... done (   0.000 sec)



           ************************************************************
           *        Program running with 24 parallel MPI-processes    *
           *              working on a common directory               *
           ************************************************************
-------------------------------------------------------------------------------
                                 ORCA SCF
-------------------------------------------------------------------------------

------------
SCF SETTINGS
------------
Hamiltonian:
 Density Functional     Method          .... DFT(GTOs)
 Exchange Functional    Exchange        .... WB97X-V
 Correlation Functional Correlation     .... WB97X-V
 Gradients option       PostSCFGGA      .... off
 Hybrid DFT is turned on
   Fraction HF Exchange ScalHFX         ....  0.167000
   Scaling of DF-GGA-X  ScalDFX         ....  0.000000
   Scaling of DF-GGA-C  ScalDFC         ....  1.000000
   Scaling of DF-LDA-C  ScalLDAC        ....  1.000000
   Perturbative correction              ....  0.000000
   Density functional embedding theory  .... OFF
 Long-range corrected/Screened/Range-Separated Hybrid DFT is turned on
   Amount of maximum screened exact exchange              ....  0.833000
   Range separation parameter mu (erf(mu*r12)/r12)        ....  0.300000
   NL short-range parameter             ....  6.000000
   NL long-range parameter              ....  0.010000


General Settings:
 Integral files         IntName         .... 177_si
 Hartree-Fock type      HFTyp           .... RHF
 Total Charge           Charge          ....    0
 Multiplicity           Mult            ....    1
 Number of Electrons    NEL             ....   18
 Basis Dimension        Dim             ....  116
 Nuclear Repulsion      ENuc            ....     21.0644562602 Eh

Convergence Acceleration:
 DIIS                   CNVDIIS         .... on
   Start iteration      DIISMaxIt       ....    12
   Startup error        DIISStart       ....  0.200000
   # of expansion vecs  DIISMaxEq       ....     5
   Bias factor          DIISBfac        ....   1.050
   Max. coefficient     DIISMaxC        ....  10.000
 Newton-Raphson         CNVNR           .... off
 SOSCF                  CNVSOSCF        .... on
   Start iteration      SOSCFMaxIt      ....   150
   Startup grad/error   SOSCFStart      ....  0.003300
 Level Shifting         CNVShift        .... on
   Level shift para.    LevelShift      ....    0.2500
   Turn off err/grad.   ShiftErr        ....    0.0010
 Zerner damping         CNVZerner       .... off
 Static damping         CNVDamp         .... on
   Fraction old density DampFac         ....    0.7000
   Max. Damping (<1)    DampMax         ....    0.9800
   Min. Damping (>=0)   DampMin         ....    0.0000
   Turn off err/grad.   DampErr         ....    0.1000
 Fernandez-Rico         CNVRico         .... off

SCF Procedure:
 Maximum # iterations   MaxIter         ....   125
 SCF integral mode      SCFMode         .... Direct
   Integral package                     .... LIBINT
 Reset frequency        DirectResetFreq ....    20
 Integral Threshold     Thresh          ....  1.000e-10 Eh
 Primitive CutOff       TCut            ....  1.000e-11 Eh

Convergence Tolerance:
 Convergence Check Mode ConvCheckMode   .... Total+1el-Energy
 Convergence forced     ConvForced      .... 0
 Energy Change          TolE            ....  1.000e-06 Eh
 1-El. energy change                    ....  1.000e-03 Eh
 Orbital Gradient       TolG            ....  5.000e-05
 Orbital Rotation angle TolX            ....  5.000e-05
 DIIS Error             TolErr          ....  1.000e-06


Diagonalization of the overlap matrix:
Smallest eigenvalue                        ... 1.977e-04
Time for diagonalization                   ...    0.004 sec
Threshold for overlap eigenvalues          ... 1.000e-08
Number of eigenvalues below threshold      ... 0
Time for construction of square roots      ...    0.002 sec
Total time needed                          ...    0.006 sec

-------------------
DFT GRID GENERATION
-------------------

General Integration Accuracy     IntAcc      ...  4.670
Radial Grid Type                 RadialGrid  ... Gauss-Chebyshev
Angular Grid (max. acc.)         AngularGrid ... Lebedev-302
Angular grid pruning method      GridPruning ... 3 (G Style)
Weight generation scheme         WeightScheme... Becke
Basis function cutoff            BFCut       ...    1.0000e-10
Integration weight cutoff        WCut        ...    1.0000e-14
Grids for H and He will be reduced by one unit

# of grid points (after initial pruning)     ...  20314 (   0.0 sec)
# of grid points (after weights+screening)   ...  19890 (   0.0 sec)
nearest neighbour list constructed           ...    0.0 sec
Grid point re-assignment to atoms done       ...    0.0 sec
Grid point division into batches done        ...    0.1 sec
Reduced shell lists constructed in    0.1 sec

Total number of grid points                  ...    19890
Total number of batches                      ...      313
Average number of points per batch           ...       63
Average number of grid points per atom       ...     3978
Average number of shells per batch           ...    40.27 (91.52%)
Average number of basis functions per batch  ...   106.93 (92.18%)
Average number of large shells per batch     ...    37.73 (93.71%)
Average number of large basis fcns per batch ...   102.00 (95.39%)
Maximum spatial batch extension              ...   1.89,  1.89,  1.89 au
Average spatial batch extension              ...   0.08,  0.08,  0.07 au

Time for grid setup =    0.108 sec

------------------------------
INITIAL GUESS: MODEL POTENTIAL
------------------------------
Loading Hartree-Fock densities                     ... done
Calculating cut-offs                               ... done
Setting up the integral package                    ... done
Initializing the effective Hamiltonian             ... done
Starting the Coulomb interaction                   ... done (   0.0 sec)
Reading the grid                                   ... done
Mapping shells                                     ... done
Starting the XC term evaluation                    ... done (   0.0 sec)
  promolecular density results
     # of electrons  =     17.998136155
     EX              =    -15.437058876
     EC              =     -0.811759917
     EX+EC           =    -16.248818793
Transforming the Hamiltonian                       ... done (   0.0 sec)
Diagonalizing the Hamiltonian                      ... done (   0.0 sec)
Back transforming the eigenvectors                 ... done (   0.0 sec)
Now organizing SCF variables                       ... done
                      ------------------
                      INITIAL GUESS DONE (   0.2 sec)
                      ------------------
--------------
SCF ITERATIONS
--------------
ITER       Energy         Delta-E        Max-DP      RMS-DP      [F,P]     Damp
               ***  Starting incremental Fock matrix formation  ***
  0   -291.8802580452   0.000000000000 0.02740825  0.00069941  0.2847996 0.7000
  1   -291.8929460737  -0.012688028564 0.01892747  0.00056449  0.1673087 0.7000
                               ***Turning on DIIS***
  2   -291.9003799301  -0.007433856368 0.03627377  0.00140807  0.0948646 0.0000
  3   -291.9146797074  -0.014299777263 0.02133431  0.00041052  0.0427049 0.0000
                      *** Initiating the SOSCF procedure ***
                           *** Shutting down DIIS ***
                      *** Re-Reading the Fockian *** 
                      *** Removing any level shift *** 
ITER      Energy       Delta-E        Grad      Rot      Max-DP    RMS-DP
  4   -291.91553672  -0.0008570150  0.001572  0.001572  0.006837  0.000253
               *** Restarting incremental Fock matrix formation ***
  5   -291.91558868  -0.0000519546  0.000552  0.000999  0.003018  0.000111
  6   -291.91559685  -0.0000081740  0.000178  0.000479  0.001228  0.000046
  7   -291.91559780  -0.0000009462  0.000030  0.000027  0.000060  0.000002
                 **** Energy Check signals convergence ****
              ***Rediagonalizing the Fockian in SOSCF/NRSCF***

               *****************************************************
               *                     SUCCESS                       *
               *           SCF CONVERGED AFTER   8 CYCLES          *
               *****************************************************


Setting up the DFT-NL grid :

General Integration Accuracy     IntAcc      ...  4.340
Radial Grid Type                 RadialGrid  ... Gauss-Chebyshev
Angular Grid (max. acc.)         AngularGrid ... Lebedev-110
Angular grid pruning method      GridPruning ... 3 (G Style)
Weight generation scheme         WeightScheme... Becke
Basis function cutoff            BFCut       ...    1.0000e-10
Integration weight cutoff        WCut        ...    1.0000e-14
Grids for H and He will be reduced by one unit

# of grid points (after initial pruning)     ...   5042 (   0.0 sec)
# of grid points (after weights+screening)   ...   4874 (   0.0 sec)
nearest neighbour list constructed           ...    0.0 sec
Grid point re-assignment to atoms done       ...    0.0 sec
Grid point division into batches done        ...    0.0 sec
Reduced shell lists constructed in    0.0 sec

Total number of grid points                  ...     4874
Total number of batches                      ...       78
Average number of points per batch           ...       62
Average number of grid points per atom       ...      975
Average number of shells per batch           ...    35.20 (80.00%)
Average number of basis functions per batch  ...    92.80 (80.00%)
Average number of large shells per batch     ...    33.60 (95.45%)
Average number of large basis fcns per batch ...    89.60 (96.55%)
Maximum spatial batch extension              ...   2.52,  2.52,  2.52 au
Average spatial batch extension              ...   0.13,  0.13,  0.13 au

Final grid set up in    0.0 sec

-------------------------------------------------------------------------------
                         DFT-NL dispersion correction                          
-------------------------------------------------------------------------------

SC Energy -291.915597804 
NL    Energy 0.075520702 
SC+NL Energy -291.840077102 
NL done in    0.0 sec
-------------------------------------------------------------------------------

----------------
TOTAL SCF ENERGY
----------------

Total Energy       :         -291.84007710 Eh           -7941.37223 eV

Components:
Nuclear Repulsion  :           21.06445626 Eh             573.19300 eV
Electronic Energy  :         -312.90453336 Eh           -8514.56522 eV
One Electron Energy:         -445.24194980 Eh          -12115.64940 eV
Two Electron Energy:          132.33741644 Eh            3601.08418 eV

Virial components:
Potential Energy   :         -582.88078506 Eh          -15860.99252 eV
Kinetic Energy     :          291.04070796 Eh            7919.62029 eV
Virial Ratio       :            2.00274659


DFT components:
N(Alpha)           :        9.000008252307 electrons
N(Beta)            :        9.000008252307 electrons
N(Total)           :       18.000016504613 electrons
E(X)               :      -15.586416725832 Eh       
E(C)               :       -0.816260129663 Eh       
NL Energy, E(C,NL) :        0.075520701895 Eh       
E(XC)              :      -16.327156153600 Eh       
DFET-embed. en.    :        0.000000000000 Eh       

---------------
SCF CONVERGENCE
---------------

  Last Energy change         ...   -6.4458e-09  Tolerance :   1.0000e-06
  Last MAX-Density change    ...    4.4779e-05  Tolerance :   1.0000e-05
  Last RMS-Density change    ...    1.2183e-06  Tolerance :   1.0000e-06
  Last Orbital Gradient      ...    1.4655e-05  Tolerance :   5.0000e-05
  Last Orbital Rotation      ...    7.1509e-06  Tolerance :   5.0000e-05

             **** THE GBW FILE WAS UPDATED (177_si.gbw) ****
             **** DENSITY FILE WAS UPDATED (177_si.scfp) ****
             **** ENERGY FILE WAS UPDATED (177_si.en.tmp) ****
             **** THE GBW FILE WAS UPDATED (177_si.gbw) ****
             **** DENSITY FILE WAS UPDATED (177_si.scfp) ****
----------------
ORBITAL ENERGIES
----------------

  NO   OCC          E(Eh)            E(eV) 
   0   2.0000     -66.137243     -1799.6859 
   1   2.0000      -5.389718      -146.6617 
   2   2.0000      -3.739146      -101.7473 
   3   2.0000      -3.739146      -101.7473 
   4   2.0000      -3.739146      -101.7473 
   5   2.0000      -0.671305       -18.2671 
   6   2.0000      -0.456084       -12.4107 
   7   2.0000      -0.456084       -12.4107 
   8   2.0000      -0.456084       -12.4107 
   9   0.0000       0.062911         1.7119 
  10   0.0000       0.096250         2.6191 
  11   0.0000       0.096250         2.6191 
  12   0.0000       0.096250         2.6191 
  13   0.0000       0.127072         3.4578 
  14   0.0000       0.127072         3.4578 
  15   0.0000       0.148030         4.0281 
  16   0.0000       0.148030         4.0281 
  17   0.0000       0.148030         4.0281 
  18   0.0000       0.205121         5.5816 
  19   0.0000       0.230732         6.2785 
  20   0.0000       0.230732         6.2785 
  21   0.0000       0.230732         6.2785 
  22   0.0000       0.290026         7.8920 
  23   0.0000       0.290026         7.8920 
  24   0.0000       0.311976         8.4893 
  25   0.0000       0.311976         8.4893 
  26   0.0000       0.311976         8.4893 
  27   0.0000       0.343630         9.3507 
  28   0.0000       0.394749        10.7417 
  29   0.0000       0.394749        10.7417 
  30   0.0000       0.394749        10.7417 
  31   0.0000       0.425781        11.5861 
  32   0.0000       0.425781        11.5861 
  33   0.0000       0.425782        11.5861 
  34   0.0000       0.474408        12.9093 
  35   0.0000       0.516226        14.0472 
  36   0.0000       0.516226        14.0472 
  37   0.0000       0.516226        14.0472 
  38   0.0000       0.555199        15.1077 
  39   0.0000       0.555199        15.1077 
  40   0.0000       0.734254        19.9801 
  41   0.0000       0.734254        19.9801 
  42   0.0000       0.734255        19.9801 
  43   0.0000       0.743833        20.2407 
  44   0.0000       0.911502        24.8032 
  45   0.0000       0.911502        24.8032 
  46   0.0000       0.911502        24.8032 
  47   0.0000       1.014944        27.6180 
  48   0.0000       1.014944        27.6180 
  49   0.0000       1.014945        27.6181 
  50   0.0000       1.123394        30.5691 
  51   0.0000       1.123394        30.5691 
  52   0.0000       1.123395        30.5691 
  53   0.0000       1.173919        31.9440 
  54   0.0000       1.173919        31.9440 
  55   0.0000       1.316058        35.8118 
  56   0.0000       1.316058        35.8118 
  57   0.0000       1.352655        36.8076 
  58   0.0000       1.469209        39.9792 
  59   0.0000       1.469209        39.9792 
  60   0.0000       1.469209        39.9792 
  61   0.0000       1.495845        40.7040 
  62   0.0000       1.495845        40.7040 
  63   0.0000       1.495845        40.7040 
  64   0.0000       1.594576        43.3906 
  65   0.0000       1.594576        43.3906 
  66   0.0000       1.594576        43.3906 
  67   0.0000       1.633891        44.4604 
  68   0.0000       1.840761        50.0896 
  69   0.0000       1.840761        50.0897 
  70   0.0000       1.840762        50.0897 
  71   0.0000       2.834792        77.1386 
  72   0.0000       2.896575        78.8198 
  73   0.0000       2.896575        78.8198 
  74   0.0000       2.896575        78.8198 
  75   0.0000       3.274871        89.1138 
  76   0.0000       3.274871        89.1138 
  77   0.0000       3.274871        89.1138 
  78   0.0000       3.301718        89.8443 
  79   0.0000       3.301718        89.8443 
  80   0.0000       3.465504        94.3012 
  81   0.0000       3.465504        94.3012 
  82   0.0000       3.465504        94.3012 
  83   0.0000       3.616976        98.4229 
  84   0.0000       3.616976        98.4229 
  85   0.0000       3.643028        99.1318 
  86   0.0000       3.643028        99.1318 
  87   0.0000       3.643028        99.1318 
  88   0.0000       3.752603       102.1135 
  89   0.0000       3.867766       105.2473 
  90   0.0000       3.867766       105.2473 
  91   0.0000       3.867766       105.2473 
  92   0.0000       3.929076       106.9156 
  93   0.0000       3.929076       106.9156 
  94   0.0000       3.929076       106.9156 
  95   0.0000       4.075793       110.9080 
  96   0.0000       4.075793       110.9080 
  97   0.0000       4.075793       110.9080 
  98   0.0000       4.178732       113.7091 
  99   0.0000       4.178732       113.7091 
 100   0.0000       4.178732       113.7091 
 101   0.0000       4.219678       114.8233 
 102   0.0000       4.219678       114.8233 
 103   0.0000       4.511481       122.7636 
 104   0.0000       4.664093       126.9164 
 105   0.0000       4.664093       126.9164 
 106   0.0000       4.664093       126.9164 
 107   0.0000       4.843567       131.8002 
 108   0.0000       4.843567       131.8002 
 109   0.0000       5.496495       149.5672 
 110   0.0000       5.496495       149.5672 
 111   0.0000       5.496496       149.5672 
 112   0.0000       6.899338       187.7405 
 113   0.0000       6.899338       187.7405 
 114   0.0000       6.899338       187.7405 
 115   0.0000      12.326248       335.4143 

                    ********************************
                    * MULLIKEN POPULATION ANALYSIS *
                    ********************************

-----------------------
MULLIKEN ATOMIC CHARGES
-----------------------
   0 Si:    0.324949
   1 H :   -0.081237
   2 H :   -0.081237
   3 H :   -0.081237
   4 H :   -0.081237
Sum of atomic charges:   -0.0000000

--------------------------------
MULLIKEN REDUCED ORBITAL CHARGES
--------------------------------
  0 Sis       :     5.180616  s :     5.180616
      pz      :     2.750637  p :     8.251910
      px      :     2.750636
      py      :     2.750636
      dz2     :    -0.000000  d :     0.227574
      dxz     :     0.075858
      dyz     :     0.075858
      dx2y2   :    -0.000000
      dxy     :     0.075858
      f0      :     0.003082  f :     0.014951
      f+1     :     0.001156
      f-1     :     0.001156
      f+2     :     0.000000
      f-2     :     0.005707
      f+3     :     0.001926
      f-3     :     0.001926
  1 H s       :     1.065325  s :     1.065325
      pz      :     0.005063  p :     0.015189
      px      :     0.005063
      py      :     0.005063
      dz2     :     0.000089  d :     0.000723
      dxz     :     0.000182
      dyz     :     0.000182
      dx2y2   :     0.000089
      dxy     :     0.000182
  2 H s       :     1.065325  s :     1.065325
      pz      :     0.005063  p :     0.015189
      px      :     0.005063
      py      :     0.005063
      dz2     :     0.000089  d :     0.000723
      dxz     :     0.000182
      dyz     :     0.000182
      dx2y2   :     0.000089
      dxy     :     0.000182
  3 H s       :     1.065325  s :     1.065325
      pz      :     0.005063  p :     0.015189
      px      :     0.005063
      py      :     0.005063
      dz2     :     0.000089  d :     0.000723
      dxz     :     0.000182
      dyz     :     0.000182
      dx2y2   :     0.000089
      dxy     :     0.000182
  4 H s       :     1.065324  s :     1.065324
      pz      :     0.005063  p :     0.015189
      px      :     0.005063
      py      :     0.005063
      dz2     :     0.000089  d :     0.000723
      dxz     :     0.000182
      dyz     :     0.000182
      dx2y2   :     0.000089
      dxy     :     0.000182


                     *******************************
                     * LOEWDIN POPULATION ANALYSIS *
                     *******************************

----------------------
LOEWDIN ATOMIC CHARGES
----------------------
   0 Si:    0.654972
   1 H :   -0.163743
   2 H :   -0.163743
   3 H :   -0.163743
   4 H :   -0.163743

-------------------------------
LOEWDIN REDUCED ORBITAL CHARGES
-------------------------------
  0 Sis       :     4.653771  s :     4.653771
      pz      :     2.726471  p :     8.179414
      px      :     2.726471
      py      :     2.726471
      dz2     :     0.000000  d :     0.463907
      dxz     :     0.154636
      dyz     :     0.154636
      dx2y2   :     0.000000
      dxy     :     0.154636
      f0      :     0.011081  f :     0.047936
      f+1     :     0.004155
      f-1     :     0.004155
      f+2     :     0.000000
      f-2     :     0.014693
      f+3     :     0.006926
      f-3     :     0.006926
  1 H s       :     0.944839  s :     0.944839
      pz      :     0.071314  p :     0.213943
      px      :     0.071314
      py      :     0.071314
      dz2     :     0.000579  d :     0.004961
      dxz     :     0.001267
      dyz     :     0.001267
      dx2y2   :     0.000579
      dxy     :     0.001267
  2 H s       :     0.944839  s :     0.944839
      pz      :     0.071314  p :     0.213943
      px      :     0.071314
      py      :     0.071314
      dz2     :     0.000579  d :     0.004961
      dxz     :     0.001267
      dyz     :     0.001267
      dx2y2   :     0.000579
      dxy     :     0.001267
  3 H s       :     0.944839  s :     0.944839
      pz      :     0.071314  p :     0.213943
      px      :     0.071314
      py      :     0.071314
      dz2     :     0.000579  d :     0.004961
      dxz     :     0.001267
      dyz     :     0.001267
      dx2y2   :     0.000579
      dxy     :     0.001267
  4 H s       :     0.944839  s :     0.944839
      pz      :     0.071314  p :     0.213943
      px      :     0.071314
      py      :     0.071314
      dz2     :     0.000579  d :     0.004961
      dxz     :     0.001267
      dyz     :     0.001267
      dx2y2   :     0.000579
      dxy     :     0.001267


                      *****************************
                      * MAYER POPULATION ANALYSIS *
                      *****************************

  NA   - Mulliken gross atomic population
  ZA   - Total nuclear charge
  QA   - Mulliken gross atomic charge
  VA   - Mayer's total valence
  BVA  - Mayer's bonded valence
  FA   - Mayer's free valence

  ATOM       NA         ZA         QA         VA         BVA        FA
  0 Si    13.6751    14.0000     0.3249     3.8852     3.8852    -0.0000
  1 H      1.0812     1.0000    -0.0812     0.9818     0.9818    -0.0000
  2 H      1.0812     1.0000    -0.0812     0.9818     0.9818    -0.0000
  3 H      1.0812     1.0000    -0.0812     0.9818     0.9818    -0.0000
  4 H      1.0812     1.0000    -0.0812     0.9818     0.9818     0.0000

  Mayer bond orders larger than 0.100000
B(  0-Si,  1-H ) :   0.9713 B(  0-Si,  2-H ) :   0.9713 B(  0-Si,  3-H ) :   0.9713 
B(  0-Si,  4-H ) :   0.9713 

-------
TIMINGS
-------

Total SCF time: 0 days 0 hours 0 min 1 sec 

Total time                  ....       1.884 sec
Sum of individual times     ....       1.690 sec  ( 89.7%)

Fock matrix formation       ....       1.439 sec  ( 76.4%)
  XC integration            ....       0.122 sec  (  8.5% of F)
    Basis function eval.    ....       0.023 sec  ( 18.5% of XC)
    Density eval.           ....       0.013 sec  ( 10.8% of XC)
    XC-Functional eval.     ....       0.013 sec  ( 10.6% of XC)
    XC-Potential eval.      ....       0.022 sec  ( 17.6% of XC)
Diagonalization             ....       0.009 sec  (  0.5%)
Density matrix formation    ....       0.003 sec  (  0.1%)
Population analysis         ....       0.003 sec  (  0.2%)
Initial guess               ....       0.114 sec  (  6.0%)
Orbital Transformation      ....       0.000 sec  (  0.0%)
Orbital Orthonormalization  ....       0.000 sec  (  0.0%)
DIIS solution               ....       0.003 sec  (  0.1%)
SOSCF solution              ....       0.003 sec  (  0.2%)
Grid generation             ....       0.117 sec  (  6.2%)

-------------------------   --------------------
FINAL SINGLE POINT ENERGY      -291.840077101668
-------------------------   --------------------


                            ***************************************
                            *     ORCA property calculations      *
                            ***************************************

                                    ---------------------
                                    Active property flags
                                    ---------------------
   (+) Dipole Moment


------------------------------------------------------------------------------
                       ORCA ELECTRIC PROPERTIES CALCULATION
------------------------------------------------------------------------------

Dipole Moment Calculation                       ... on
Quadrupole Moment Calculation                   ... off
Polarizability Calculation                      ... off
GBWName                                         ... 177_si.gbw
Electron density file                           ... 177_si.scfp
The origin for moment calculation is the CENTER OF MASS  = ( 0.000000,  0.000000  0.000000)

-------------
DIPOLE MOMENT
-------------
                                X             Y             Z
Electronic contribution:      0.00000       0.00000      -0.00000
Nuclear contribution   :      0.00000       0.00000       0.00000
                        -----------------------------------------
Total Dipole Moment    :      0.00000       0.00000      -0.00000
                        -----------------------------------------
Magnitude (a.u.)       :      0.00000
Magnitude (Debye)      :      0.00000



--------------------
Rotational spectrum 
--------------------
 
Rotational constants in cm-1:     2.790565     2.790565     2.790565 
Rotational constants in MHz : 83659.038574 83659.038574 83659.038574 

 Dipole components along the rotational axes: 
x,y,z [a.u.] :     0.000000     0.000000    -0.000000 
x,y,z [Debye]:     0.000000     0.000000    -0.000000 

 

Timings for individual modules:

Sum of individual times         ...        2.938 sec (=   0.049 min)
GTO integral calculation        ...        0.674 sec (=   0.011 min)  22.9 %
SCF iterations                  ...        2.264 sec (=   0.038 min)  77.1 %
                             ****ORCA TERMINATED NORMALLY****
TOTAL RUN TIME: 0 days 0 hours 0 minutes 3 seconds 379 msec
