
                                 *****************
                                 * O   R   C   A *
                                 *****************

           --- An Ab Initio, DFT and Semiempirical electronic structure package ---

                  #######################################################
                  #                        -***-                        #
                  #          Department of theory and spectroscopy      #
                  #               Directorship: Frank Neese             #
                  #        Max Planck Institute fuer Kohlenforschung    #
                  #                Kaiser Wilhelm Platz 1               #
                  #                 D-45470 Muelheim/Ruhr               #
                  #                      Germany                        #
                  #                                                     #
                  #                  All rights reserved                #
                  #                        -***-                        #
                  #######################################################


                         Program Version 4.2.0 -  RELEASE  -


 With contributions from (in alphabetic order):
   Daniel Aravena         : Magnetic Suceptibility
   Michael Atanasov       : Ab Initio Ligand Field Theory (pilot matlab implementation)
   Alexander A. Auer      : GIAO ZORA, VPT2
   Ute Becker             : Parallelization
   Giovanni Bistoni       : ED, misc. LED, open-shell LED, HFLED
   Martin Brehm           : Molecular dynamics
   Dmytro Bykov           : SCF Hessian
   Vijay G. Chilkuri      : MRCI spin determinant printing, contributions to CSF-ICE
   Dipayan Datta          : RHF DLPNO-CCSD density
   Achintya Kumar Dutta   : EOM-CC, STEOM-CC
   Dmitry Ganyushin       : Spin-Orbit,Spin-Spin,Magnetic field MRCI
   Miquel Garcia          : C-PCM Hessian, Gaussian charge scheme
   Yang Guo               : DLPNO-NEVPT2, CIM, IAO-localization
   Andreas Hansen         : Spin unrestricted coupled pair/coupled cluster methods
   Benjamin Helmich-Paris : CASSCF linear response (MC-RPA)
   Lee Huntington         : MR-EOM, pCC
   Robert Izsak           : Overlap fitted RIJCOSX, COSX-SCS-MP3, EOM
   Christian Kollmar      : KDIIS, OOCD, Brueckner-CCSD(T), CCSD density
   Simone Kossmann        : Meta GGA functionals, TD-DFT gradient, OOMP2, MP2 Hessian
   Martin Krupicka        : AUTO-CI
   Lucas Lang             : DCDCAS
   Dagmar Lenk            : GEPOL surface, SMD
   Dimitrios Liakos       : Extrapolation schemes; Compound Job, initial MDCI parallelization
   Dimitrios Manganas     : Further ROCIS development; embedding schemes
   Dimitrios Pantazis     : SARC Basis sets
   Taras Petrenko         : DFT Hessian,TD-DFT gradient, ASA, ECA, R-Raman, ABS, FL, XAS/XES, NRVS
   Peter Pinski           : DLPNO-MP2, DLPNO-MP2 Gradient
   Christoph Reimann      : Effective Core Potentials
   Marius Retegan         : Local ZFS, SOC
   Christoph Riplinger    : Optimizer, TS searches, QM/MM, DLPNO-CCSD(T), (RO)-DLPNO pert. Triples
   Tobias Risthaus        : Range-separated hybrids, TD-DFT gradient, RPA, STAB
   Michael Roemelt        : Original ROCIS implementation
   Masaaki Saitow         : Open-shell DLPNO-CCSD energy and density
   Barbara Sandhoefer     : DKH picture change effects
   Avijit Sen             : IP-ROCIS
   Kantharuban Sivalingam : CASSCF convergence, NEVPT2, FIC-MRCI
   Bernardo de Souza      : ESD, SOC TD-DFT
   Georgi Stoychev        : AutoAux, RI-MP2 NMR
   Willem Van den Heuvel  : Paramagnetic NMR
   Boris Wezisla          : Elementary symmetry handling
   Frank Wennmohs         : Technical directorship


 We gratefully acknowledge several colleagues who have allowed us to
 interface, adapt or use parts of their codes:
   Stefan Grimme, W. Hujo, H. Kruse,             : VdW corrections, initial TS optimization,
                  C. Bannwarth                     DFT functionals, gCP, sTDA/sTD-DF
   Ed Valeev, F. Pavosevic, A. Kumar             : LibInt (2-el integral package), F12 methods
   Garnet Chan, S. Sharma, J. Yang, R. Olivares  : DMRG
   Ulf Ekstrom                                   : XCFun DFT Library
   Mihaly Kallay                                 : mrcc  (arbitrary order and MRCC methods)
   Andreas Klamt, Michael Diedenhofen            : otool_cosmo (COSMO solvation model)
   Jiri Pittner, Ondrej Demel                    : Mk-CCSD
   Frank Weinhold                                : gennbo (NPA and NBO analysis)
   Christopher J. Cramer and Donald G. Truhlar   : smd solvation model
   Lars Goerigk                                  : TD-DFT with DH, B97 family of functionals
   V. Asgeirsson, H. Jonsson                     : NEB implementation
   FAccTs GmbH                                   : IRC, NEB, NEB-TS, Multilevel, MM, QM/MM, CI optimization
   S Lehtola, MJT Oliveira, MAL Marques          : LibXC Library


 Your calculation uses the libint2 library for the computation of 2-el integrals
 For citations please refer to: http://libint.valeyev.net

 Your ORCA version has been built with support for libXC version: 4.2.3
 For citations please refer to: https://tddft.org/programs/libxc/

 This ORCA versions uses:
   CBLAS   interface :  Fast vector & matrix operations
   LAPACKE interface :  Fast linear algebra routines
   SCALAPACK package :  Parallel linear algebra routines


Your calculation utilizes the DFT-NL dispersion correction.
Cite in your paper:
Vydrov, O. A.; Van Voorhis, T. J. Chem. Phys. 2010, 133, 244103
Hujo, W.; Grimme, S. J. Chem. Theory Comput. 2011, 7, 3866 
   

----- Orbital basis set information -----
Your calculation utilizes the basis: def2-TZVPPD
   F. Weigend and R. Ahlrichs, Phys. Chem. Chem. Phys. 7, 3297 (2005).
   D. Rappoport and F. Furche, J. Chem. Phys. 133 134105 (2010).

----- AuxJK basis set information -----
Your calculation utilizes the auxiliary basis: def2/JK
   H-Ba, Hf-Rn: F. Weigend, J. Comput. Chem. 29, 167 (2008).

================================================================================
                                        WARNINGS
                       Please study these warnings very carefully!
================================================================================


INFO   : the flag for use of LIBINT has been found!

================================================================================
                                       INPUT FILE
================================================================================
NAME = 178_p.in
|  1> #
|  2> # 178_p wB97X-V/Def2-TZVPPD
|  3> #
|  4> ! wb97x-v def2-tzvppd def2/jk grid4 nofinalgrid
|  5> 
|  6> *xyz 0 1
|  7> P          0.00000        0.00000        0.95949
|  8> P          0.00000        0.00000       -0.95949
|  9> *
| 10> 
| 11> %maxcore 5000
| 12> 
| 13> %pal
| 14> nprocs = 24
| 15> end
| 16> 
| 17> 
| 18>                          ****END OF INPUT****
================================================================================

                       ****************************
                       * Single Point Calculation *
                       ****************************

---------------------------------
CARTESIAN COORDINATES (ANGSTROEM)
---------------------------------
  P      0.000000    0.000000    0.959490
  P      0.000000    0.000000   -0.959490

----------------------------
CARTESIAN COORDINATES (A.U.)
----------------------------
  NO LB      ZA    FRAG     MASS         X           Y           Z
   0 P    15.0000    0    30.974    0.000000    0.000000    1.813173
   1 P    15.0000    0    30.974    0.000000    0.000000   -1.813173

--------------------------------
INTERNAL COORDINATES (ANGSTROEM)
--------------------------------
 P      0   0   0     0.000000000000     0.00000000     0.00000000
 P      1   0   0     1.918980000000     0.00000000     0.00000000

---------------------------
INTERNAL COORDINATES (A.U.)
---------------------------
 P      0   0   0     0.000000000000     0.00000000     0.00000000
 P      1   0   0     3.626346656472     0.00000000     0.00000000

---------------------
BASIS SET INFORMATION
---------------------
There are 1 groups of distinct atoms

 Group   1 Type P   : 15s9p4d1f contracted to 6s5p4d1f pattern {732111/51111/1111/1}

Atom   0P    basis set group =>   1
Atom   1P    basis set group =>   1
----------------------------------
AUXILIARY/JK BASIS SET INFORMATION
----------------------------------
There are 1 groups of distinct atoms

 Group   1 Type P   : 16s12p10d4f1g contracted to 13s11p9d4f1g pattern {4111111111111/21111111111/211111111/1111/1}

Atom   0P    basis set group =>   1
Atom   1P    basis set group =>   1


           ************************************************************
           *        Program running with 24 parallel MPI-processes    *
           *              working on a common directory               *
           ************************************************************
------------------------------------------------------------------------------
                           ORCA GTO INTEGRAL CALCULATION
------------------------------------------------------------------------------

                         BASIS SET STATISTICS AND STARTUP INFO

 # of primitive gaussian shells          ...   58
 # of primitive gaussian functions       ...  138
 # of contracted shells                  ...   32
 # of contracted basis functions         ...   96
 Highest angular momentum                ...    3
 Maximum contraction depth               ...    7
 Integral package used                   ... LIBINT
 Integral threshhold            Thresh   ...  1.000e-10
 Primitive cut-off              TCut     ...  1.000e-11


------------------------------ INTEGRAL EVALUATION ----------------------------


 * One electron integrals 
 Pre-screening matrix                    ... done
 Shell pair data                         ... done (   0.000 sec)



           ************************************************************
           *        Program running with 24 parallel MPI-processes    *
           *              working on a common directory               *
           ************************************************************
-------------------------------------------------------------------------------
                                 ORCA SCF
-------------------------------------------------------------------------------

------------
SCF SETTINGS
------------
Hamiltonian:
 Density Functional     Method          .... DFT(GTOs)
 Exchange Functional    Exchange        .... WB97X-V
 Correlation Functional Correlation     .... WB97X-V
 Gradients option       PostSCFGGA      .... off
 Hybrid DFT is turned on
   Fraction HF Exchange ScalHFX         ....  0.167000
   Scaling of DF-GGA-X  ScalDFX         ....  0.000000
   Scaling of DF-GGA-C  ScalDFC         ....  1.000000
   Scaling of DF-LDA-C  ScalLDAC        ....  1.000000
   Perturbative correction              ....  0.000000
   Density functional embedding theory  .... OFF
 Long-range corrected/Screened/Range-Separated Hybrid DFT is turned on
   Amount of maximum screened exact exchange              ....  0.833000
   Range separation parameter mu (erf(mu*r12)/r12)        ....  0.300000
   NL short-range parameter             ....  6.000000
   NL long-range parameter              ....  0.010000


General Settings:
 Integral files         IntName         .... 178_p
 Hartree-Fock type      HFTyp           .... RHF
 Total Charge           Charge          ....    0
 Multiplicity           Mult            ....    1
 Number of Electrons    NEL             ....   30
 Basis Dimension        Dim             ....   96
 Nuclear Repulsion      ENuc            ....     62.0459159905 Eh

Convergence Acceleration:
 DIIS                   CNVDIIS         .... on
   Start iteration      DIISMaxIt       ....    12
   Startup error        DIISStart       ....  0.200000
   # of expansion vecs  DIISMaxEq       ....     5
   Bias factor          DIISBfac        ....   1.050
   Max. coefficient     DIISMaxC        ....  10.000
 Newton-Raphson         CNVNR           .... off
 SOSCF                  CNVSOSCF        .... on
   Start iteration      SOSCFMaxIt      ....   150
   Startup grad/error   SOSCFStart      ....  0.003300
 Level Shifting         CNVShift        .... on
   Level shift para.    LevelShift      ....    0.2500
   Turn off err/grad.   ShiftErr        ....    0.0010
 Zerner damping         CNVZerner       .... off
 Static damping         CNVDamp         .... on
   Fraction old density DampFac         ....    0.7000
   Max. Damping (<1)    DampMax         ....    0.9800
   Min. Damping (>=0)   DampMin         ....    0.0000
   Turn off err/grad.   DampErr         ....    0.1000
 Fernandez-Rico         CNVRico         .... off

SCF Procedure:
 Maximum # iterations   MaxIter         ....   125
 SCF integral mode      SCFMode         .... Direct
   Integral package                     .... LIBINT
 Reset frequency        DirectResetFreq ....    20
 Integral Threshold     Thresh          ....  1.000e-10 Eh
 Primitive CutOff       TCut            ....  1.000e-11 Eh

Convergence Tolerance:
 Convergence Check Mode ConvCheckMode   .... Total+1el-Energy
 Convergence forced     ConvForced      .... 0
 Energy Change          TolE            ....  1.000e-06 Eh
 1-El. energy change                    ....  1.000e-03 Eh
 Orbital Gradient       TolG            ....  5.000e-05
 Orbital Rotation angle TolX            ....  5.000e-05
 DIIS Error             TolErr          ....  1.000e-06


Diagonalization of the overlap matrix:
Smallest eigenvalue                        ... 4.968e-04
Time for diagonalization                   ...    0.002 sec
Threshold for overlap eigenvalues          ... 1.000e-08
Number of eigenvalues below threshold      ... 0
Time for construction of square roots      ...    0.001 sec
Total time needed                          ...    0.004 sec

-------------------
DFT GRID GENERATION
-------------------

General Integration Accuracy     IntAcc      ...  4.670
Radial Grid Type                 RadialGrid  ... Gauss-Chebyshev
Angular Grid (max. acc.)         AngularGrid ... Lebedev-302
Angular grid pruning method      GridPruning ... 3 (G Style)
Weight generation scheme         WeightScheme... Becke
Basis function cutoff            BFCut       ...    1.0000e-10
Integration weight cutoff        WCut        ...    1.0000e-14
Grids for H and He will be reduced by one unit

# of grid points (after initial pruning)     ...  13692 (   0.0 sec)
# of grid points (after weights+screening)   ...  13664 (   0.0 sec)
nearest neighbour list constructed           ...    0.0 sec
Grid point re-assignment to atoms done       ...    0.0 sec
Grid point division into batches done        ...    0.1 sec
Reduced shell lists constructed in    0.1 sec

Total number of grid points                  ...    13664
Total number of batches                      ...      214
Average number of points per batch           ...       63
Average number of grid points per atom       ...     6832
Average number of shells per batch           ...     4.80 (15.00%)
Average number of basis functions per batch  ...    14.00 (14.58%)
Average number of large shells per batch     ...     3.70 (77.08%)
Average number of large basis fcns per batch ...    11.10 (79.29%)
Maximum spatial batch extension              ...  21.45, 21.51, 14.48 au
Average spatial batch extension              ...   0.73,  0.73,  0.51 au

Time for grid setup =    0.155 sec

------------------------------
INITIAL GUESS: MODEL POTENTIAL
------------------------------
Loading Hartree-Fock densities                     ... done
Calculating cut-offs                               ... done
Setting up the integral package                    ... done
Initializing the effective Hamiltonian             ... done
Starting the Coulomb interaction                   ... done (   0.0 sec)
Reading the grid                                   ... done
Mapping shells                                     ... done
Starting the XC term evaluation                    ... done (   0.0 sec)
  promolecular density results
     # of electrons  =     30.000013005
     EX              =    -33.383505050
     EC              =     -1.523700714
     EX+EC           =    -34.907205765
Transforming the Hamiltonian                       ... done (   0.0 sec)
Diagonalizing the Hamiltonian                      ... done (   0.0 sec)
Back transforming the eigenvectors                 ... done (   0.0 sec)
Now organizing SCF variables                       ... done
                      ------------------
                      INITIAL GUESS DONE (   0.3 sec)
                      ------------------
--------------
SCF ITERATIONS
--------------
ITER       Energy         Delta-E        Max-DP      RMS-DP      [F,P]     Damp
               ***  Starting incremental Fock matrix formation  ***
  0   -682.6230384213   0.000000000000 0.05981326  0.00174849  0.2988483 0.7000
  1   -682.6543083112  -0.031269889892 0.04596313  0.00142882  0.1783350 0.7000
                               ***Turning on DIIS***
  2   -682.6737751781  -0.019466866868 0.02761966  0.00100962  0.1031879 0.7000
  3   -682.6863610068  -0.012585828702 0.05062969  0.00236278  0.0593574 0.0000
  4   -682.7143033965  -0.027942389741 0.01785357  0.00049818  0.0064164 0.0000
                      *** Initiating the SOSCF procedure ***
                           *** Shutting down DIIS ***
                      *** Re-Reading the Fockian *** 
                      *** Removing any level shift *** 
ITER      Energy       Delta-E        Grad      Rot      Max-DP    RMS-DP
  5   -682.71449666  -0.0001932603  0.003022  0.003022  0.008945  0.000286
               *** Restarting incremental Fock matrix formation ***
  6   -682.71454626  -0.0000496075  0.001274  0.002628  0.003339  0.000141
  7   -682.71455783  -0.0000115693  0.000446  0.001459  0.001622  0.000068
  8   -682.71455960  -0.0000017624  0.000029  0.000052  0.000132  0.000005
                 **** Energy Check signals convergence ****
              ***Rediagonalizing the Fockian in SOSCF/NRSCF***

               *****************************************************
               *                     SUCCESS                       *
               *           SCF CONVERGED AFTER   9 CYCLES          *
               *****************************************************


Setting up the DFT-NL grid :

General Integration Accuracy     IntAcc      ...  4.340
Radial Grid Type                 RadialGrid  ... Gauss-Chebyshev
Angular Grid (max. acc.)         AngularGrid ... Lebedev-110
Angular grid pruning method      GridPruning ... 3 (G Style)
Weight generation scheme         WeightScheme... Becke
Basis function cutoff            BFCut       ...    1.0000e-10
Integration weight cutoff        WCut        ...    1.0000e-14
Grids for H and He will be reduced by one unit

# of grid points (after initial pruning)     ...   3612 (   0.0 sec)
# of grid points (after weights+screening)   ...   3588 (   0.0 sec)
nearest neighbour list constructed           ...    0.0 sec
Grid point re-assignment to atoms done       ...    0.0 sec
Grid point division into batches done        ...    0.0 sec
Reduced shell lists constructed in    0.0 sec

Total number of grid points                  ...     3588
Total number of batches                      ...       58
Average number of points per batch           ...       61
Average number of grid points per atom       ...     1794
Average number of shells per batch           ...    13.25 (41.41%)
Average number of basis functions per batch  ...    44.75 (46.61%)
Average number of large shells per batch     ...     9.50 (71.70%)
Average number of large basis fcns per batch ...    29.00 (64.80%)
Maximum spatial batch extension              ...  32.81, 25.05, 18.19 au
Average spatial batch extension              ...   1.15,  1.17,  0.81 au

Final grid set up in    0.0 sec

-------------------------------------------------------------------------------
                         DFT-NL dispersion correction                          
-------------------------------------------------------------------------------

SC Energy -682.714559605 
NL    Energy 0.125472509 
SC+NL Energy -682.589087096 
NL done in    0.0 sec
-------------------------------------------------------------------------------

----------------
TOTAL SCF ENERGY
----------------

Total Energy       :         -682.58908710 Eh          -18574.19335 eV

Components:
Nuclear Repulsion  :           62.04591599 Eh            1688.35521 eV
Electronic Energy  :         -744.63500309 Eh          -20262.54856 eV
One Electron Energy:        -1067.34991728 Eh          -29044.06782 eV
Two Electron Energy:          322.71491419 Eh            8781.51926 eV

Virial components:
Potential Energy   :        -1363.72354189 Eh          -37108.80415 eV
Kinetic Energy     :          681.13445480 Eh           18534.61080 eV
Virial Ratio       :            2.00213560


DFT components:
N(Alpha)           :       15.000004780473 electrons
N(Beta)            :       15.000004780473 electrons
N(Total)           :       30.000009560946 electrons
E(X)               :      -33.382657267736 Eh       
E(C)               :       -1.526779969025 Eh       
NL Energy, E(C,NL) :        0.125472509258 Eh       
E(XC)              :      -34.783964727503 Eh       
DFET-embed. en.    :        0.000000000000 Eh       

---------------
SCF CONVERGENCE
---------------

  Last Energy change         ...   -8.8178e-09  Tolerance :   1.0000e-06
  Last MAX-Density change    ...    6.3046e-05  Tolerance :   1.0000e-05
  Last RMS-Density change    ...    1.9845e-06  Tolerance :   1.0000e-06
  Last Orbital Gradient      ...    7.8984e-06  Tolerance :   5.0000e-05
  Last Orbital Rotation      ...    2.0765e-05  Tolerance :   5.0000e-05

             **** THE GBW FILE WAS UPDATED (178_p.gbw) ****
             **** DENSITY FILE WAS UPDATED (178_p.scfp) ****
             **** ENERGY FILE WAS UPDATED (178_p.en.tmp) ****
             **** THE GBW FILE WAS UPDATED (178_p.gbw) ****
             **** DENSITY FILE WAS UPDATED (178_p.scfp) ****
----------------
ORBITAL ENERGIES
----------------

  NO   OCC          E(Eh)            E(eV) 
   0   2.0000     -77.103446     -2098.0914 
   1   2.0000     -77.103415     -2098.0906 
   2   2.0000      -6.683835      -181.8764 
   3   2.0000      -6.683413      -181.8649 
   4   2.0000      -4.837165      -131.6259 
   5   2.0000      -4.837165      -131.6259 
   6   2.0000      -4.837000      -131.6215 
   7   2.0000      -4.837000      -131.6215 
   8   2.0000      -4.833092      -131.5151 
   9   2.0000      -4.831228      -131.4644 
  10   2.0000      -0.806619       -21.9492 
  11   2.0000      -0.577799       -15.7227 
  12   2.0000      -0.394470       -10.7341 
  13   2.0000      -0.375997       -10.2314 
  14   2.0000      -0.375997       -10.2314 
  15   0.0000      -0.025275        -0.6878 
  16   0.0000      -0.025275        -0.6878 
  17   0.0000       0.081251         2.2110 
  18   0.0000       0.090395         2.4598 
  19   0.0000       0.154533         4.2050 
  20   0.0000       0.154533         4.2051 
  21   0.0000       0.165396         4.5007 
  22   0.0000       0.177774         4.8375 
  23   0.0000       0.198046         5.3891 
  24   0.0000       0.198046         5.3891 
  25   0.0000       0.219758         5.9799 
  26   0.0000       0.219758         5.9799 
  27   0.0000       0.250724         6.8226 
  28   0.0000       0.250724         6.8226 
  29   0.0000       0.281796         7.6681 
  30   0.0000       0.315030         8.5724 
  31   0.0000       0.315030         8.5724 
  32   0.0000       0.400015        10.8850 
  33   0.0000       0.445724        12.1288 
  34   0.0000       0.445724        12.1288 
  35   0.0000       0.458310        12.4712 
  36   0.0000       0.458310        12.4713 
  37   0.0000       0.462636        12.5890 
  38   0.0000       0.529653        14.4126 
  39   0.0000       0.529653        14.4126 
  40   0.0000       0.557841        15.1796 
  41   0.0000       0.561319        15.2743 
  42   0.0000       0.561320        15.2743 
  43   0.0000       0.678158        18.4536 
  44   0.0000       0.678158        18.4536 
  45   0.0000       0.694633        18.9019 
  46   0.0000       0.822362        22.3776 
  47   0.0000       0.986181        26.8354 
  48   0.0000       1.276170        34.7263 
  49   0.0000       1.291893        35.1542 
  50   0.0000       1.291894        35.1542 
  51   0.0000       1.326652        36.1000 
  52   0.0000       1.326652        36.1000 
  53   0.0000       1.379928        37.5497 
  54   0.0000       1.379928        37.5497 
  55   0.0000       1.416930        38.5566 
  56   0.0000       1.416934        38.5567 
  57   0.0000       1.429854        38.9083 
  58   0.0000       1.429854        38.9083 
  59   0.0000       1.454141        39.5692 
  60   0.0000       1.454145        39.5693 
  61   0.0000       1.502993        40.8985 
  62   0.0000       1.502993        40.8985 
  63   0.0000       1.530695        41.6523 
  64   0.0000       1.560629        42.4669 
  65   0.0000       1.560629        42.4669 
  66   0.0000       1.610136        43.8140 
  67   0.0000       1.642909        44.7058 
  68   0.0000       1.642909        44.7058 
  69   0.0000       1.744807        47.4786 
  70   0.0000       1.744807        47.4786 
  71   0.0000       1.768903        48.1343 
  72   0.0000       1.768904        48.1343 
  73   0.0000       1.852137        50.3992 
  74   0.0000       2.272925        61.8494 
  75   0.0000       2.272925        61.8494 
  76   0.0000       2.359241        64.1982 
  77   0.0000       2.439490        66.3819 
  78   0.0000       5.720244       155.6558 
  79   0.0000       5.784715       157.4101 
  80   0.0000       5.784730       157.4105 
  81   0.0000       5.788186       157.5046 
  82   0.0000       5.788186       157.5046 
  83   0.0000       5.815387       158.2447 
  84   0.0000       5.815403       158.2452 
  85   0.0000       5.874733       159.8596 
  86   0.0000       5.874733       159.8596 
  87   0.0000       6.212307       169.0455 
  88   0.0000       7.297298       198.5696 
  89   0.0000       7.297298       198.5696 
  90   0.0000       7.483280       203.6304 
  91   0.0000       7.483280       203.6304 
  92   0.0000       7.567841       205.9314 
  93   0.0000       7.777473       211.6358 
  94   0.0000      13.304094       362.0228 
  95   0.0000      14.725965       400.7139 

                    ********************************
                    * MULLIKEN POPULATION ANALYSIS *
                    ********************************

-----------------------
MULLIKEN ATOMIC CHARGES
-----------------------
   0 P :    0.000002
   1 P :   -0.000002
Sum of atomic charges:   -0.0000000

--------------------------------
MULLIKEN REDUCED ORBITAL CHARGES
--------------------------------
  0 P s       :     5.885597  s :     5.885597
      pz      :     3.089969  p :     8.993119
      px      :     2.951575
      py      :     2.951575
      dz2     :     0.022730  d :     0.113377
      dxz     :     0.045324
      dyz     :     0.045324
      dx2y2   :     0.000000
      dxy     :     0.000000
      f0      :     0.001703  f :     0.007906
      f+1     :     0.003102
      f-1     :     0.003102
      f+2     :     0.000000
      f-2     :     0.000000
      f+3     :     0.000000
      f-3     :     0.000000
  1 P s       :     5.885599  s :     5.885599
      pz      :     3.089969  p :     8.993119
      px      :     2.951575
      py      :     2.951575
      dz2     :     0.022730  d :     0.113377
      dxz     :     0.045324
      dyz     :     0.045324
      dx2y2   :     0.000000
      dxy     :     0.000000
      f0      :     0.001703  f :     0.007906
      f+1     :     0.003102
      f-1     :     0.003102
      f+2     :     0.000000
      f-2     :     0.000000
      f+3     :     0.000000
      f-3     :     0.000000


                     *******************************
                     * LOEWDIN POPULATION ANALYSIS *
                     *******************************

----------------------
LOEWDIN ATOMIC CHARGES
----------------------
   0 P :    0.000000
   1 P :   -0.000000

-------------------------------
LOEWDIN REDUCED ORBITAL CHARGES
-------------------------------
  0 P s       :     5.482331  s :     5.482331
      pz      :     3.311383  p :     9.132955
      px      :     2.910786
      py      :     2.910786
      dz2     :     0.193547  d :     0.357922
      dxz     :     0.082187
      dyz     :     0.082187
      dx2y2   :     0.000000
      dxy     :     0.000000
      f0      :     0.012738  f :     0.026792
      f+1     :     0.007027
      f-1     :     0.007027
      f+2     :     0.000000
      f-2     :     0.000000
      f+3     :     0.000000
      f-3     :     0.000000
  1 P s       :     5.482331  s :     5.482331
      pz      :     3.311383  p :     9.132955
      px      :     2.910786
      py      :     2.910786
      dz2     :     0.193547  d :     0.357922
      dxz     :     0.082187
      dyz     :     0.082187
      dx2y2   :     0.000000
      dxy     :     0.000000
      f0      :     0.012738  f :     0.026792
      f+1     :     0.007027
      f-1     :     0.007027
      f+2     :     0.000000
      f-2     :     0.000000
      f+3     :     0.000000
      f-3     :     0.000000


                      *****************************
                      * MAYER POPULATION ANALYSIS *
                      *****************************

  NA   - Mulliken gross atomic population
  ZA   - Total nuclear charge
  QA   - Mulliken gross atomic charge
  VA   - Mayer's total valence
  BVA  - Mayer's bonded valence
  FA   - Mayer's free valence

  ATOM       NA         ZA         QA         VA         BVA        FA
  0 P     15.0000    15.0000     0.0000     2.8531     2.8531    -0.0000
  1 P     15.0000    15.0000    -0.0000     2.8531     2.8531     0.0000

  Mayer bond orders larger than 0.100000
B(  0-P ,  1-P ) :   2.8531 

-------
TIMINGS
-------

Total SCF time: 0 days 0 hours 0 min 1 sec 

Total time                  ....       1.966 sec
Sum of individual times     ....       1.767 sec  ( 89.9%)

Fock matrix formation       ....       1.469 sec  ( 74.7%)
  XC integration            ....       0.106 sec  (  7.2% of F)
    Basis function eval.    ....       0.011 sec  ( 10.3% of XC)
    Density eval.           ....       0.006 sec  (  6.0% of XC)
    XC-Functional eval.     ....       0.008 sec  (  7.9% of XC)
    XC-Potential eval.      ....       0.011 sec  ( 10.3% of XC)
Diagonalization             ....       0.008 sec  (  0.4%)
Density matrix formation    ....       0.003 sec  (  0.1%)
Population analysis         ....       0.003 sec  (  0.2%)
Initial guess               ....       0.112 sec  (  5.7%)
Orbital Transformation      ....       0.000 sec  (  0.0%)
Orbital Orthonormalization  ....       0.000 sec  (  0.0%)
DIIS solution               ....       0.003 sec  (  0.2%)
SOSCF solution              ....       0.003 sec  (  0.1%)
Grid generation             ....       0.166 sec  (  8.5%)

-------------------------   --------------------
FINAL SINGLE POINT ENERGY      -682.589087095666
-------------------------   --------------------


                            ***************************************
                            *     ORCA property calculations      *
                            ***************************************

                                    ---------------------
                                    Active property flags
                                    ---------------------
   (+) Dipole Moment


------------------------------------------------------------------------------
                       ORCA ELECTRIC PROPERTIES CALCULATION
------------------------------------------------------------------------------

Dipole Moment Calculation                       ... on
Quadrupole Moment Calculation                   ... off
Polarizability Calculation                      ... off
GBWName                                         ... 178_p.gbw
Electron density file                           ... 178_p.scfp
The origin for moment calculation is the CENTER OF MASS  = ( 0.000000,  0.000000  0.000000)

-------------
DIPOLE MOMENT
-------------
                                X             Y             Z
Electronic contribution:      0.00000       0.00000      -0.00000
Nuclear contribution   :      0.00000       0.00000       0.00000
                        -----------------------------------------
Total Dipole Moment    :      0.00000       0.00000      -0.00000
                        -----------------------------------------
Magnitude (a.u.)       :      0.00000
Magnitude (Debye)      :      0.00000



--------------------
Rotational spectrum 
--------------------
 
Rotational constants in cm-1:     0.000000     0.295589     0.295589 
Rotational constants in MHz :     0.000000  8861.544214  8861.544214 

 Dipole components along the rotational axes: 
x,y,z [a.u.] :    -0.000000     0.000000     0.000000 
x,y,z [Debye]:    -0.000000     0.000000     0.000000 

 

Timings for individual modules:

Sum of individual times         ...        3.220 sec (=   0.054 min)
GTO integral calculation        ...        0.807 sec (=   0.013 min)  25.1 %
SCF iterations                  ...        2.413 sec (=   0.040 min)  74.9 %
                             ****ORCA TERMINATED NORMALLY****
TOTAL RUN TIME: 0 days 0 hours 0 minutes 3 seconds 821 msec
