
                                 *****************
                                 * O   R   C   A *
                                 *****************

           --- An Ab Initio, DFT and Semiempirical electronic structure package ---

                  #######################################################
                  #                        -***-                        #
                  #          Department of theory and spectroscopy      #
                  #               Directorship: Frank Neese             #
                  #        Max Planck Institute fuer Kohlenforschung    #
                  #                Kaiser Wilhelm Platz 1               #
                  #                 D-45470 Muelheim/Ruhr               #
                  #                      Germany                        #
                  #                                                     #
                  #                  All rights reserved                #
                  #                        -***-                        #
                  #######################################################


                         Program Version 4.2.0 -  RELEASE  -


 With contributions from (in alphabetic order):
   Daniel Aravena         : Magnetic Suceptibility
   Michael Atanasov       : Ab Initio Ligand Field Theory (pilot matlab implementation)
   Alexander A. Auer      : GIAO ZORA, VPT2
   Ute Becker             : Parallelization
   Giovanni Bistoni       : ED, misc. LED, open-shell LED, HFLED
   Martin Brehm           : Molecular dynamics
   Dmytro Bykov           : SCF Hessian
   Vijay G. Chilkuri      : MRCI spin determinant printing, contributions to CSF-ICE
   Dipayan Datta          : RHF DLPNO-CCSD density
   Achintya Kumar Dutta   : EOM-CC, STEOM-CC
   Dmitry Ganyushin       : Spin-Orbit,Spin-Spin,Magnetic field MRCI
   Miquel Garcia          : C-PCM Hessian, Gaussian charge scheme
   Yang Guo               : DLPNO-NEVPT2, CIM, IAO-localization
   Andreas Hansen         : Spin unrestricted coupled pair/coupled cluster methods
   Benjamin Helmich-Paris : CASSCF linear response (MC-RPA)
   Lee Huntington         : MR-EOM, pCC
   Robert Izsak           : Overlap fitted RIJCOSX, COSX-SCS-MP3, EOM
   Christian Kollmar      : KDIIS, OOCD, Brueckner-CCSD(T), CCSD density
   Simone Kossmann        : Meta GGA functionals, TD-DFT gradient, OOMP2, MP2 Hessian
   Martin Krupicka        : AUTO-CI
   Lucas Lang             : DCDCAS
   Dagmar Lenk            : GEPOL surface, SMD
   Dimitrios Liakos       : Extrapolation schemes; Compound Job, initial MDCI parallelization
   Dimitrios Manganas     : Further ROCIS development; embedding schemes
   Dimitrios Pantazis     : SARC Basis sets
   Taras Petrenko         : DFT Hessian,TD-DFT gradient, ASA, ECA, R-Raman, ABS, FL, XAS/XES, NRVS
   Peter Pinski           : DLPNO-MP2, DLPNO-MP2 Gradient
   Christoph Reimann      : Effective Core Potentials
   Marius Retegan         : Local ZFS, SOC
   Christoph Riplinger    : Optimizer, TS searches, QM/MM, DLPNO-CCSD(T), (RO)-DLPNO pert. Triples
   Tobias Risthaus        : Range-separated hybrids, TD-DFT gradient, RPA, STAB
   Michael Roemelt        : Original ROCIS implementation
   Masaaki Saitow         : Open-shell DLPNO-CCSD energy and density
   Barbara Sandhoefer     : DKH picture change effects
   Avijit Sen             : IP-ROCIS
   Kantharuban Sivalingam : CASSCF convergence, NEVPT2, FIC-MRCI
   Bernardo de Souza      : ESD, SOC TD-DFT
   Georgi Stoychev        : AutoAux, RI-MP2 NMR
   Willem Van den Heuvel  : Paramagnetic NMR
   Boris Wezisla          : Elementary symmetry handling
   Frank Wennmohs         : Technical directorship


 We gratefully acknowledge several colleagues who have allowed us to
 interface, adapt or use parts of their codes:
   Stefan Grimme, W. Hujo, H. Kruse,             : VdW corrections, initial TS optimization,
                  C. Bannwarth                     DFT functionals, gCP, sTDA/sTD-DF
   Ed Valeev, F. Pavosevic, A. Kumar             : LibInt (2-el integral package), F12 methods
   Garnet Chan, S. Sharma, J. Yang, R. Olivares  : DMRG
   Ulf Ekstrom                                   : XCFun DFT Library
   Mihaly Kallay                                 : mrcc  (arbitrary order and MRCC methods)
   Andreas Klamt, Michael Diedenhofen            : otool_cosmo (COSMO solvation model)
   Jiri Pittner, Ondrej Demel                    : Mk-CCSD
   Frank Weinhold                                : gennbo (NPA and NBO analysis)
   Christopher J. Cramer and Donald G. Truhlar   : smd solvation model
   Lars Goerigk                                  : TD-DFT with DH, B97 family of functionals
   V. Asgeirsson, H. Jonsson                     : NEB implementation
   FAccTs GmbH                                   : IRC, NEB, NEB-TS, Multilevel, MM, QM/MM, CI optimization
   S Lehtola, MJT Oliveira, MAL Marques          : LibXC Library


 Your calculation uses the libint2 library for the computation of 2-el integrals
 For citations please refer to: http://libint.valeyev.net

 Your ORCA version has been built with support for libXC version: 4.2.3
 For citations please refer to: https://tddft.org/programs/libxc/

 This ORCA versions uses:
   CBLAS   interface :  Fast vector & matrix operations
   LAPACKE interface :  Fast linear algebra routines
   SCALAPACK package :  Parallel linear algebra routines


Your calculation utilizes the DFT-NL dispersion correction.
Cite in your paper:
Vydrov, O. A.; Van Voorhis, T. J. Chem. Phys. 2010, 133, 244103
Hujo, W.; Grimme, S. J. Chem. Theory Comput. 2011, 7, 3866 
   

----- Orbital basis set information -----
Your calculation utilizes the basis: def2-TZVPPD
   F. Weigend and R. Ahlrichs, Phys. Chem. Chem. Phys. 7, 3297 (2005).
   D. Rappoport and F. Furche, J. Chem. Phys. 133 134105 (2010).

----- AuxJK basis set information -----
Your calculation utilizes the auxiliary basis: def2/JK
   H-Ba, Hf-Rn: F. Weigend, J. Comput. Chem. 29, 167 (2008).

================================================================================
                                        WARNINGS
                       Please study these warnings very carefully!
================================================================================


WARNING: your system is open-shell and RHF/RKS was chosen
  ===> : WILL SWITCH to UHF/UKS


INFO   : the flag for use of LIBINT has been found!

================================================================================
                                       INPUT FILE
================================================================================
NAME = 179_s.in
|  1> #
|  2> # 179_s wB97X-V/Def2-TZVPPD
|  3> #
|  4> ! wb97x-v def2-tzvppd def2/jk grid4 nofinalgrid
|  5> 
|  6> *xyz 0 3
|  7> S          0.00000        0.00000        0.96937
|  8> S          0.00000        0.00000       -0.96937
|  9> *
| 10> 
| 11> %maxcore 5000
| 12> 
| 13> %pal
| 14> nprocs = 24
| 15> end
| 16> 
| 17> 
| 18>                          ****END OF INPUT****
================================================================================

                       ****************************
                       * Single Point Calculation *
                       ****************************

---------------------------------
CARTESIAN COORDINATES (ANGSTROEM)
---------------------------------
  S      0.000000    0.000000    0.969370
  S      0.000000    0.000000   -0.969370

----------------------------
CARTESIAN COORDINATES (A.U.)
----------------------------
  NO LB      ZA    FRAG     MASS         X           Y           Z
   0 S    16.0000    0    32.060    0.000000    0.000000    1.831844
   1 S    16.0000    0    32.060    0.000000    0.000000   -1.831844

--------------------------------
INTERNAL COORDINATES (ANGSTROEM)
--------------------------------
 S      0   0   0     0.000000000000     0.00000000     0.00000000
 S      1   0   0     1.938740000000     0.00000000     0.00000000

---------------------------
INTERNAL COORDINATES (A.U.)
---------------------------
 S      0   0   0     0.000000000000     0.00000000     0.00000000
 S      1   0   0     3.663687644878     0.00000000     0.00000000

---------------------
BASIS SET INFORMATION
---------------------
There are 1 groups of distinct atoms

 Group   1 Type S   : 15s10p4d1f contracted to 6s6p4d1f pattern {732111/511111/1111/1}

Atom   0S    basis set group =>   1
Atom   1S    basis set group =>   1
----------------------------------
AUXILIARY/JK BASIS SET INFORMATION
----------------------------------
There are 1 groups of distinct atoms

 Group   1 Type S   : 16s12p10d4f1g contracted to 13s11p9d4f1g pattern {4111111111111/21111111111/211111111/1111/1}

Atom   0S    basis set group =>   1
Atom   1S    basis set group =>   1


           ************************************************************
           *        Program running with 24 parallel MPI-processes    *
           *              working on a common directory               *
           ************************************************************
------------------------------------------------------------------------------
                           ORCA GTO INTEGRAL CALCULATION
------------------------------------------------------------------------------

                         BASIS SET STATISTICS AND STARTUP INFO

 # of primitive gaussian shells          ...   60
 # of primitive gaussian functions       ...  144
 # of contracted shells                  ...   34
 # of contracted basis functions         ...  102
 Highest angular momentum                ...    3
 Maximum contraction depth               ...    7
 Integral package used                   ... LIBINT
 Integral threshhold            Thresh   ...  1.000e-10
 Primitive cut-off              TCut     ...  1.000e-11


------------------------------ INTEGRAL EVALUATION ----------------------------


 * One electron integrals 
 Pre-screening matrix                    ... done
 Shell pair data                         ... done (   0.000 sec)



           ************************************************************
           *        Program running with 24 parallel MPI-processes    *
           *              working on a common directory               *
           ************************************************************
-------------------------------------------------------------------------------
                                 ORCA SCF
-------------------------------------------------------------------------------

------------
SCF SETTINGS
------------
Hamiltonian:
 Density Functional     Method          .... DFT(GTOs)
 Exchange Functional    Exchange        .... WB97X-V
 Correlation Functional Correlation     .... WB97X-V
 Gradients option       PostSCFGGA      .... off
 Hybrid DFT is turned on
   Fraction HF Exchange ScalHFX         ....  0.167000
   Scaling of DF-GGA-X  ScalDFX         ....  0.000000
   Scaling of DF-GGA-C  ScalDFC         ....  1.000000
   Scaling of DF-LDA-C  ScalLDAC        ....  1.000000
   Perturbative correction              ....  0.000000
   Density functional embedding theory  .... OFF
 Long-range corrected/Screened/Range-Separated Hybrid DFT is turned on
   Amount of maximum screened exact exchange              ....  0.833000
   Range separation parameter mu (erf(mu*r12)/r12)        ....  0.300000
   NL short-range parameter             ....  6.000000
   NL long-range parameter              ....  0.010000


General Settings:
 Integral files         IntName         .... 179_s
 Hartree-Fock type      HFTyp           .... UHF
 Total Charge           Charge          ....    0
 Multiplicity           Mult            ....    3
 Number of Electrons    NEL             ....   32
 Basis Dimension        Dim             ....  102
 Nuclear Repulsion      ENuc            ....     69.8749524561 Eh

Convergence Acceleration:
 DIIS                   CNVDIIS         .... on
   Start iteration      DIISMaxIt       ....    12
   Startup error        DIISStart       ....  0.200000
   # of expansion vecs  DIISMaxEq       ....     5
   Bias factor          DIISBfac        ....   1.050
   Max. coefficient     DIISMaxC        ....  10.000
 Newton-Raphson         CNVNR           .... off
 SOSCF                  CNVSOSCF        .... off
 Level Shifting         CNVShift        .... on
   Level shift para.    LevelShift      ....    0.2500
   Turn off err/grad.   ShiftErr        ....    0.0010
 Zerner damping         CNVZerner       .... off
 Static damping         CNVDamp         .... on
   Fraction old density DampFac         ....    0.7000
   Max. Damping (<1)    DampMax         ....    0.9800
   Min. Damping (>=0)   DampMin         ....    0.0000
   Turn off err/grad.   DampErr         ....    0.1000
 Fernandez-Rico         CNVRico         .... off

SCF Procedure:
 Maximum # iterations   MaxIter         ....   125
 SCF integral mode      SCFMode         .... Direct
   Integral package                     .... LIBINT
 Reset frequency        DirectResetFreq ....    20
 Integral Threshold     Thresh          ....  1.000e-10 Eh
 Primitive CutOff       TCut            ....  1.000e-11 Eh

Convergence Tolerance:
 Convergence Check Mode ConvCheckMode   .... Total+1el-Energy
 Convergence forced     ConvForced      .... 0
 Energy Change          TolE            ....  1.000e-06 Eh
 1-El. energy change                    ....  1.000e-03 Eh
 DIIS Error             TolErr          ....  1.000e-06


Diagonalization of the overlap matrix:
Smallest eigenvalue                        ... 8.216e-04
Time for diagonalization                   ...    0.002 sec
Threshold for overlap eigenvalues          ... 1.000e-08
Number of eigenvalues below threshold      ... 0
Time for construction of square roots      ...    0.001 sec
Total time needed                          ...    0.004 sec

-------------------
DFT GRID GENERATION
-------------------

General Integration Accuracy     IntAcc      ...  4.670
Radial Grid Type                 RadialGrid  ... Gauss-Chebyshev
Angular Grid (max. acc.)         AngularGrid ... Lebedev-302
Angular grid pruning method      GridPruning ... 3 (G Style)
Weight generation scheme         WeightScheme... Becke
Basis function cutoff            BFCut       ...    1.0000e-10
Integration weight cutoff        WCut        ...    1.0000e-14
Grids for H and He will be reduced by one unit

# of grid points (after initial pruning)     ...  13692 (   0.0 sec)
# of grid points (after weights+screening)   ...  13666 (   0.0 sec)
nearest neighbour list constructed           ...    0.0 sec
Grid point re-assignment to atoms done       ...    0.0 sec
Grid point division into batches done        ...    0.1 sec
Reduced shell lists constructed in    0.1 sec

Total number of grid points                  ...    13666
Total number of batches                      ...      214
Average number of points per batch           ...       63
Average number of grid points per atom       ...     6833
Average number of shells per batch           ...     8.20 (24.12%)
Average number of basis functions per batch  ...    22.00 (21.57%)
Average number of large shells per batch     ...     6.40 (78.05%)
Average number of large basis fcns per batch ...    19.20 (87.27%)
Maximum spatial batch extension              ...  19.50, 19.55, 12.87 au
Average spatial batch extension              ...   0.66,  0.66,  0.47 au

Time for grid setup =    0.120 sec

------------------------------
INITIAL GUESS: MODEL POTENTIAL
------------------------------
Loading Hartree-Fock densities                     ... done
Calculating cut-offs                               ... done
Setting up the integral package                    ... done
Initializing the effective Hamiltonian             ... done
Starting the Coulomb interaction                   ... done (   0.0 sec)
Reading the grid                                   ... done
Mapping shells                                     ... done
Starting the XC term evaluation                    ... done (   0.0 sec)
  promolecular density results
     # of electrons  =     32.000016304
     EX              =    -37.056568514
     EC              =     -1.654653073
     EX+EC           =    -38.711221588
Transforming the Hamiltonian                       ... done (   0.0 sec)
Diagonalizing the Hamiltonian                      ... done (   0.0 sec)
Back transforming the eigenvectors                 ... done (   0.0 sec)
Now organizing SCF variables                       ... done
                      ------------------
                      INITIAL GUESS DONE (   0.2 sec)
                      ------------------
--------------
SCF ITERATIONS
--------------
ITER       Energy         Delta-E        Max-DP      RMS-DP      [F,P]     Damp
               ***  Starting incremental Fock matrix formation  ***
  0   -796.2473564594   0.000000000000 0.04180021  0.00121999  0.3115670 0.7000
  1   -796.2982419560  -0.050885496652 0.02952127  0.00095860  0.1838647 0.7000
                               ***Turning on DIIS***
  2   -796.3299996329  -0.031757676870 0.01596430  0.00065267  0.1048031 0.7000
  3   -796.3504019740  -0.020402341094 0.04019011  0.00147294  0.0592584 0.0000
  4   -796.3964923116  -0.046090337647 0.01418228  0.00031690  0.0067588 0.0000
  5   -796.3971509267  -0.000658615049 0.00513542  0.00015594  0.0018446 0.0000
  6   -796.3973292154  -0.000178288752 0.00413233  0.00010934  0.0008391 0.0000
  7   -796.3973767067  -0.000047491299 0.00097362  0.00002692  0.0002322 0.0000
  8   -796.3973796524  -0.000002945701 0.00008151  0.00000270  0.0000370 0.0000
                 **** Energy Check signals convergence ****

               *****************************************************
               *                     SUCCESS                       *
               *           SCF CONVERGED AFTER   9 CYCLES          *
               *****************************************************


Setting up the DFT-NL grid :

General Integration Accuracy     IntAcc      ...  4.340
Radial Grid Type                 RadialGrid  ... Gauss-Chebyshev
Angular Grid (max. acc.)         AngularGrid ... Lebedev-110
Angular grid pruning method      GridPruning ... 3 (G Style)
Weight generation scheme         WeightScheme... Becke
Basis function cutoff            BFCut       ...    1.0000e-10
Integration weight cutoff        WCut        ...    1.0000e-14
Grids for H and He will be reduced by one unit

# of grid points (after initial pruning)     ...   3612 (   0.0 sec)
# of grid points (after weights+screening)   ...   3588 (   0.0 sec)
nearest neighbour list constructed           ...    0.0 sec
Grid point re-assignment to atoms done       ...    0.0 sec
Grid point division into batches done        ...    0.0 sec
Reduced shell lists constructed in    0.0 sec

Total number of grid points                  ...     3588
Total number of batches                      ...       58
Average number of points per batch           ...       61
Average number of grid points per atom       ...     1794
Average number of shells per batch           ...    14.50 (42.65%)
Average number of basis functions per batch  ...    48.00 (47.06%)
Average number of large shells per batch     ...    11.00 (75.86%)
Average number of large basis fcns per batch ...    33.50 (69.79%)
Maximum spatial batch extension              ...  29.83, 22.78, 16.66 au
Average spatial batch extension              ...   1.05,  1.06,  0.74 au

Final grid set up in    0.0 sec

-------------------------------------------------------------------------------
                         DFT-NL dispersion correction                          
-------------------------------------------------------------------------------

SC Energy -796.397379721 
NL    Energy 0.133709259 
SC+NL Energy -796.263670463 
NL done in    0.0 sec
-------------------------------------------------------------------------------

----------------
TOTAL SCF ENERGY
----------------

Total Energy       :         -796.26367046 Eh          -21667.43602 eV

Components:
Nuclear Repulsion  :           69.87495246 Eh            1901.39412 eV
Electronic Energy  :         -866.13862292 Eh          -23568.83015 eV
One Electron Energy:        -1238.49604072 Eh          -33701.19060 eV
Two Electron Energy:          372.35741780 Eh           10132.36046 eV

Virial components:
Potential Energy   :        -1591.06550648 Eh          -43295.09351 eV
Kinetic Energy     :          794.80183602 Eh           21627.65749 eV
Virial Ratio       :            2.00183924


DFT components:
N(Alpha)           :       17.000005815624 electrons
N(Beta)            :       15.000005884534 electrons
N(Total)           :       32.000011700157 electrons
E(X)               :      -37.078476810322 Eh       
E(C)               :       -1.645982903173 Eh       
NL Energy, E(C,NL) :        0.133709258859 Eh       
E(XC)              :      -38.590750454636 Eh       
DFET-embed. en.    :        0.000000000000 Eh       

---------------
SCF CONVERGENCE
---------------

  Last Energy change         ...   -6.9039e-08  Tolerance :   1.0000e-06
  Last MAX-Density change    ...    2.5811e-05  Tolerance :   1.0000e-05
  Last RMS-Density change    ...    6.3521e-07  Tolerance :   1.0000e-06
  Last DIIS Error            ...    9.4341e-06  Tolerance :   1.0000e-06

             **** THE GBW FILE WAS UPDATED (179_s.gbw) ****
             **** DENSITY FILE WAS UPDATED (179_s.scfp) ****
             **** ENERGY FILE WAS UPDATED (179_s.en.tmp) ****
----------------------
UHF SPIN CONTAMINATION
----------------------

Warning: in a DFT calculation there is little theoretical justification to 
         calculate <S**2> as in Hartree-Fock theory. We will do it anyways
         but you should keep in mind that the values have only limited relevance

Expectation value of <S**2>     :     2.015683
Ideal value S*(S+1) for S=1.0   :     2.000000
Deviation                       :     0.015683

             **** THE GBW FILE WAS UPDATED (179_s.gbw) ****
             **** DENSITY FILE WAS UPDATED (179_s.scfp) ****
----------------
ORBITAL ENERGIES
----------------
                 SPIN UP ORBITALS
  NO   OCC          E(Eh)            E(eV) 
   0   1.0000     -88.923912     -2419.7427 
   1   1.0000     -88.923898     -2419.7423 
   2   1.0000      -8.098070      -220.3597 
   3   1.0000      -8.097960      -220.3567 
   4   1.0000      -6.052051      -164.6847 
   5   1.0000      -6.052051      -164.6847 
   6   1.0000      -6.052027      -164.6840 
   7   1.0000      -6.052027      -164.6840 
   8   1.0000      -6.051657      -164.6739 
   9   1.0000      -6.051072      -164.6580 
  10   1.0000      -0.965021       -26.2595 
  11   1.0000      -0.765798       -20.8384 
  12   1.0000      -0.502054       -13.6616 
  13   1.0000      -0.487556       -13.2671 
  14   1.0000      -0.487556       -13.2671 
  15   1.0000      -0.352648        -9.5960 
  16   1.0000      -0.352648        -9.5960 
  17   0.0000       0.034633         0.9424 
  18   0.0000       0.076597         2.0843 
  19   0.0000       0.076597         2.0843 
  20   0.0000       0.077377         2.1055 
  21   0.0000       0.087821         2.3897 
  22   0.0000       0.096625         2.6293 
  23   0.0000       0.096625         2.6293 
  24   0.0000       0.097319         2.6482 
  25   0.0000       0.170344         4.6353 
  26   0.0000       0.170345         4.6353 
  27   0.0000       0.211770         5.7626 
  28   0.0000       0.219644         5.9768 
  29   0.0000       0.219644         5.9768 
  30   0.0000       0.261891         7.1264 
  31   0.0000       0.266232         7.2445 
  32   0.0000       0.266233         7.2446 
  33   0.0000       0.310890         8.4597 
  34   0.0000       0.311069         8.4646 
  35   0.0000       0.311069         8.4646 
  36   0.0000       0.426422        11.6035 
  37   0.0000       0.426422        11.6035 
  38   0.0000       0.465783        12.6746 
  39   0.0000       0.485547        13.2124 
  40   0.0000       0.485547        13.2124 
  41   0.0000       0.508633        13.8406 
  42   0.0000       0.508633        13.8406 
  43   0.0000       0.585818        15.9409 
  44   0.0000       0.585819        15.9409 
  45   0.0000       0.597428        16.2568 
  46   0.0000       0.597428        16.2568 
  47   0.0000       0.611486        16.6394 
  48   0.0000       0.636157        17.3107 
  49   0.0000       0.719748        19.5853 
  50   0.0000       0.719748        19.5853 
  51   0.0000       0.792240        21.5579 
  52   0.0000       0.835773        22.7425 
  53   0.0000       1.209010        32.8988 
  54   0.0000       1.527779        41.5730 
  55   0.0000       1.527783        41.5731 
  56   0.0000       1.554774        42.3076 
  57   0.0000       1.583770        43.0966 
  58   0.0000       1.583770        43.0966 
  59   0.0000       1.646217        44.7958 
  60   0.0000       1.646223        44.7960 
  61   0.0000       1.669958        45.4419 
  62   0.0000       1.669963        45.4420 
  63   0.0000       1.675445        45.5912 
  64   0.0000       1.675445        45.5912 
  65   0.0000       1.679361        45.6977 
  66   0.0000       1.679361        45.6977 
  67   0.0000       1.713796        46.6348 
  68   0.0000       1.754690        47.7475 
  69   0.0000       1.754690        47.7475 
  70   0.0000       1.761237        47.9257 
  71   0.0000       1.761237        47.9257 
  72   0.0000       1.933398        52.6104 
  73   0.0000       1.933398        52.6104 
  74   0.0000       1.941095        52.8199 
  75   0.0000       1.998198        54.3737 
  76   0.0000       1.998204        54.3739 
  77   0.0000       2.028717        55.2042 
  78   0.0000       2.028717        55.2042 
  79   0.0000       2.087072        56.7921 
  80   0.0000       2.527801        68.7850 
  81   0.0000       2.582873        70.2835 
  82   0.0000       2.582873        70.2835 
  83   0.0000       3.150034        85.7168 
  84   0.0000       6.790651       184.7830 
  85   0.0000       6.790681       184.7838 
  86   0.0000       6.820399       185.5925 
  87   0.0000       6.820429       185.5933 
  88   0.0000       6.826179       185.7498 
  89   0.0000       6.826179       185.7498 
  90   0.0000       6.841139       186.1568 
  91   0.0000       6.841139       186.1568 
  92   0.0000       6.851297       186.4333 
  93   0.0000       7.032180       191.3554 
  94   0.0000       8.924273       242.8418 
  95   0.0000       8.924273       242.8418 
  96   0.0000       9.051745       246.3105 
  97   0.0000       9.051745       246.3105 
  98   0.0000       9.208051       250.5638 
  99   0.0000       9.331071       253.9113 
 100   0.0000      18.380070       500.1471 
 101   0.0000      19.028634       517.7954 

                 SPIN DOWN ORBITALS
  NO   OCC          E(Eh)            E(eV) 
   0   1.0000     -88.917755     -2419.5751 
   1   1.0000     -88.917744     -2419.5748 
   2   1.0000      -8.092828      -220.2170 
   3   1.0000      -8.092641      -220.2120 
   4   1.0000      -6.047994      -164.5743 
   5   1.0000      -6.047401      -164.5581 
   6   1.0000      -6.040416      -164.3681 
   7   1.0000      -6.040416      -164.3681 
   8   1.0000      -6.040375      -164.3670 
   9   1.0000      -6.040375      -164.3670 
  10   1.0000      -0.934563       -25.4308 
  11   1.0000      -0.698189       -18.9987 
  12   1.0000      -0.478541       -13.0218 
  13   1.0000      -0.422737       -11.5033 
  14   1.0000      -0.422737       -11.5033 
  15   0.0000      -0.066034        -1.7969 
  16   0.0000      -0.066034        -1.7969 
  17   0.0000       0.041132         1.1193 
  18   0.0000       0.078849         2.1456 
  19   0.0000       0.078849         2.1456 
  20   0.0000       0.080087         2.1793 
  21   0.0000       0.097871         2.6632 
  22   0.0000       0.100591         2.7372 
  23   0.0000       0.102588         2.7916 
  24   0.0000       0.102588         2.7916 
  25   0.0000       0.178046         4.8449 
  26   0.0000       0.178047         4.8449 
  27   0.0000       0.217622         5.9218 
  28   0.0000       0.236639         6.4393 
  29   0.0000       0.236639         6.4393 
  30   0.0000       0.267904         7.2900 
  31   0.0000       0.279167         7.5965 
  32   0.0000       0.279168         7.5965 
  33   0.0000       0.315539         8.5862 
  34   0.0000       0.319428         8.6921 
  35   0.0000       0.319428         8.6921 
  36   0.0000       0.433281        11.7902 
  37   0.0000       0.433281        11.7902 
  38   0.0000       0.471150        12.8207 
  39   0.0000       0.510415        13.8891 
  40   0.0000       0.510415        13.8891 
  41   0.0000       0.537138        14.6163 
  42   0.0000       0.537140        14.6163 
  43   0.0000       0.608744        16.5648 
  44   0.0000       0.608744        16.5648 
  45   0.0000       0.617790        16.8109 
  46   0.0000       0.628907        17.1134 
  47   0.0000       0.628907        17.1134 
  48   0.0000       0.645720        17.5709 
  49   0.0000       0.745470        20.2853 
  50   0.0000       0.745470        20.2853 
  51   0.0000       0.811360        22.0782 
  52   0.0000       0.853815        23.2335 
  53   0.0000       1.223214        33.2853 
  54   0.0000       1.554932        42.3118 
  55   0.0000       1.554935        42.3119 
  56   0.0000       1.568146        42.6714 
  57   0.0000       1.600907        43.5629 
  58   0.0000       1.600907        43.5629 
  59   0.0000       1.672331        45.5064 
  60   0.0000       1.672332        45.5065 
  61   0.0000       1.696629        46.1676 
  62   0.0000       1.696629        46.1676 
  63   0.0000       1.697258        46.1848 
  64   0.0000       1.697259        46.1848 
  65   0.0000       1.714871        46.6640 
  66   0.0000       1.714871        46.6640 
  67   0.0000       1.724948        46.9382 
  68   0.0000       1.772209        48.2243 
  69   0.0000       1.772209        48.2243 
  70   0.0000       1.803486        49.0753 
  71   0.0000       1.803486        49.0753 
  72   0.0000       1.951525        53.1037 
  73   0.0000       1.963048        53.4173 
  74   0.0000       1.963048        53.4173 
  75   0.0000       2.026941        55.1559 
  76   0.0000       2.026949        55.1561 
  77   0.0000       2.056437        55.9585 
  78   0.0000       2.056437        55.9585 
  79   0.0000       2.103008        57.2258 
  80   0.0000       2.539861        69.1131 
  81   0.0000       2.603674        70.8496 
  82   0.0000       2.603674        70.8496 
  83   0.0000       3.162211        86.0481 
  84   0.0000       6.800191       185.0426 
  85   0.0000       6.800223       185.0435 
  86   0.0000       6.830307       185.8621 
  87   0.0000       6.830339       185.8630 
  88   0.0000       6.831220       185.8869 
  89   0.0000       6.831220       185.8869 
  90   0.0000       6.846442       186.3011 
  91   0.0000       6.846442       186.3011 
  92   0.0000       6.855339       186.5433 
  93   0.0000       7.037587       191.5025 
  94   0.0000       8.940973       243.2963 
  95   0.0000       8.940973       243.2963 
  96   0.0000       9.068795       246.7745 
  97   0.0000       9.068795       246.7745 
  98   0.0000       9.214454       250.7380 
  99   0.0000       9.337777       254.0938 
 100   0.0000      18.388705       500.3821 
 101   0.0000      19.037619       518.0399 

                    ********************************
                    * MULLIKEN POPULATION ANALYSIS *
                    ********************************

--------------------------------------------
MULLIKEN ATOMIC CHARGES AND SPIN POPULATIONS
--------------------------------------------
   0 S :   -0.000001    1.000001
   1 S :    0.000001    0.999999
Sum of atomic charges         :   -0.0000000
Sum of atomic spin populations:    2.0000000

-----------------------------------------------------
MULLIKEN REDUCED ORBITAL CHARGES AND SPIN POPULATIONS
-----------------------------------------------------
CHARGE
  0 S s       :     5.926383  s :     5.926383
      pz      :     3.037105  p :     9.946196
      px      :     3.454546
      py      :     3.454546
      dz2     :     0.033015  d :     0.116930
      dxz     :     0.041958
      dyz     :     0.041958
      dx2y2   :     0.000000
      dxy     :     0.000000
      f0      :     0.003498  f :     0.010492
      f+1     :     0.003497
      f-1     :     0.003497
      f+2     :     0.000000
      f-2     :     0.000000
      f+3     :     0.000000
      f-3     :     0.000000
  1 S s       :     5.926382  s :     5.926382
      pz      :     3.037104  p :     9.946196
      px      :     3.454546
      py      :     3.454546
      dz2     :     0.033015  d :     0.116930
      dxz     :     0.041957
      dyz     :     0.041957
      dx2y2   :     0.000000
      dxy     :     0.000000
      f0      :     0.003498  f :     0.010492
      f+1     :     0.003497
      f-1     :     0.003497
      f+2     :     0.000000
      f-2     :     0.000000
      f+3     :     0.000000
      f-3     :     0.000000

SPIN
  0 S s       :     0.010696  s :     0.010696
      pz      :    -0.011414  p :     1.001565
      px      :     0.506489
      py      :     0.506489
      dz2     :     0.001255  d :    -0.011123
      dxz     :    -0.006189
      dyz     :    -0.006189
      dx2y2   :     0.000000
      dxy     :     0.000000
      f0      :    -0.000537  f :    -0.001138
      f+1     :    -0.000300
      f-1     :    -0.000300
      f+2     :    -0.000000
      f-2     :    -0.000000
      f+3     :     0.000000
      f-3     :     0.000000
  1 S s       :     0.010695  s :     0.010695
      pz      :    -0.011414  p :     1.001565
      px      :     0.506489
      py      :     0.506489
      dz2     :     0.001255  d :    -0.011123
      dxz     :    -0.006189
      dyz     :    -0.006189
      dx2y2   :    -0.000000
      dxy     :    -0.000000
      f0      :    -0.000537  f :    -0.001138
      f+1     :    -0.000300
      f-1     :    -0.000300
      f+2     :    -0.000000
      f-2     :    -0.000000
      f+3     :     0.000000
      f-3     :     0.000000


                     *******************************
                     * LOEWDIN POPULATION ANALYSIS *
                     *******************************

-------------------------------------------
LOEWDIN ATOMIC CHARGES AND SPIN POPULATIONS
-------------------------------------------
   0 S :   -0.000000    1.000000
   1 S :    0.000000    1.000000

----------------------------------------------------
LOEWDIN REDUCED ORBITAL CHARGES AND SPIN POPULATIONS
----------------------------------------------------
CHARGE
  0 S s       :     5.562273  s :     5.562273
      pz      :     3.230310  p :     9.956804
      px      :     3.363247
      py      :     3.363247
      dz2     :     0.195124  d :     0.451055
      dxz     :     0.127966
      dyz     :     0.127966
      dx2y2   :     0.000000
      dxy     :     0.000000
      f0      :     0.012293  f :     0.029868
      f+1     :     0.008787
      f-1     :     0.008787
      f+2     :     0.000000
      f-2     :     0.000000
      f+3     :     0.000000
      f-3     :     0.000000
  1 S s       :     5.562273  s :     5.562273
      pz      :     3.230310  p :     9.956804
      px      :     3.363247
      py      :     3.363247
      dz2     :     0.195124  d :     0.451055
      dxz     :     0.127966
      dyz     :     0.127966
      dx2y2   :     0.000000
      dxy     :     0.000000
      f0      :     0.012293  f :     0.029868
      f+1     :     0.008787
      f-1     :     0.008787
      f+2     :     0.000000
      f-2     :     0.000000
      f+3     :     0.000000
      f-3     :     0.000000

SPIN
  0 S s       :     0.004962  s :     0.004962
      pz      :    -0.009479  p :     0.885450
      px      :     0.447465
      py      :     0.447465
      dz2     :     0.004996  d :     0.104697
      dxz     :     0.049851
      dyz     :     0.049851
      dx2y2   :     0.000000
      dxy     :    -0.000000
      f0      :    -0.000478  f :     0.004891
      f+1     :     0.002685
      f-1     :     0.002685
      f+2     :    -0.000000
      f-2     :    -0.000000
      f+3     :     0.000000
      f-3     :     0.000000
  1 S s       :     0.004962  s :     0.004962
      pz      :    -0.009479  p :     0.885450
      px      :     0.447465
      py      :     0.447465
      dz2     :     0.004996  d :     0.104697
      dxz     :     0.049851
      dyz     :     0.049851
      dx2y2   :    -0.000000
      dxy     :    -0.000000
      f0      :    -0.000478  f :     0.004891
      f+1     :     0.002685
      f-1     :     0.002685
      f+2     :    -0.000000
      f-2     :    -0.000000
      f+3     :     0.000000
      f-3     :     0.000000


                      *****************************
                      * MAYER POPULATION ANALYSIS *
                      *****************************

  NA   - Mulliken gross atomic population
  ZA   - Total nuclear charge
  QA   - Mulliken gross atomic charge
  VA   - Mayer's total valence
  BVA  - Mayer's bonded valence
  FA   - Mayer's free valence

  ATOM       NA         ZA         QA         VA         BVA        FA
  0 S     16.0000    16.0000    -0.0000     2.5525     1.9582     0.5943
  1 S     16.0000    16.0000     0.0000     2.5525     1.9582     0.5943

  Mayer bond orders larger than 0.100000
B(  0-S ,  1-S ) :   1.9582 

-------
TIMINGS
-------

Total SCF time: 0 days 0 hours 0 min 2 sec 

Total time                  ....       2.069 sec
Sum of individual times     ....       1.871 sec  ( 90.4%)

Fock matrix formation       ....       1.598 sec  ( 77.2%)
  XC integration            ....       0.125 sec  (  7.8% of F)
    Basis function eval.    ....       0.012 sec  (  9.9% of XC)
    Density eval.           ....       0.013 sec  ( 10.5% of XC)
    XC-Functional eval.     ....       0.009 sec  (  7.5% of XC)
    XC-Potential eval.      ....       0.027 sec  ( 21.6% of XC)
Diagonalization             ....       0.027 sec  (  1.3%)
Density matrix formation    ....       0.005 sec  (  0.2%)
Population analysis         ....       0.005 sec  (  0.2%)
Initial guess               ....       0.097 sec  (  4.7%)
Orbital Transformation      ....       0.000 sec  (  0.0%)
Orbital Orthonormalization  ....       0.000 sec  (  0.0%)
DIIS solution               ....       0.009 sec  (  0.5%)
Grid generation             ....       0.130 sec  (  6.3%)

-------------------------   --------------------
FINAL SINGLE POINT ENERGY      -796.263670462628
-------------------------   --------------------


                            ***************************************
                            *     ORCA property calculations      *
                            ***************************************

                                    ---------------------
                                    Active property flags
                                    ---------------------
   (+) Dipole Moment


------------------------------------------------------------------------------
                       ORCA ELECTRIC PROPERTIES CALCULATION
------------------------------------------------------------------------------

Dipole Moment Calculation                       ... on
Quadrupole Moment Calculation                   ... off
Polarizability Calculation                      ... off
GBWName                                         ... 179_s.gbw
Electron density file                           ... 179_s.scfp
The origin for moment calculation is the CENTER OF MASS  = ( 0.000000,  0.000000  0.000000)

-------------
DIPOLE MOMENT
-------------
                                X             Y             Z
Electronic contribution:      0.00000       0.00000       0.00000
Nuclear contribution   :      0.00000       0.00000       0.00000
                        -----------------------------------------
Total Dipole Moment    :      0.00000       0.00000       0.00000
                        -----------------------------------------
Magnitude (a.u.)       :      0.00000
Magnitude (Debye)      :      0.00000



--------------------
Rotational spectrum 
--------------------
 
Rotational constants in cm-1:     0.000000     0.279785     0.279785 
Rotational constants in MHz :     0.000000  8387.739618  8387.739618 

 Dipole components along the rotational axes: 
x,y,z [a.u.] :     0.000000     0.000000     0.000000 
x,y,z [Debye]:     0.000000     0.000000     0.000000 

 

Timings for individual modules:

Sum of individual times         ...        3.131 sec (=   0.052 min)
GTO integral calculation        ...        0.660 sec (=   0.011 min)  21.1 %
SCF iterations                  ...        2.471 sec (=   0.041 min)  78.9 %
                             ****ORCA TERMINATED NORMALLY****
TOTAL RUN TIME: 0 days 0 hours 0 minutes 3 seconds 568 msec
