
                                 *****************
                                 * O   R   C   A *
                                 *****************

           --- An Ab Initio, DFT and Semiempirical electronic structure package ---

                  #######################################################
                  #                        -***-                        #
                  #          Department of theory and spectroscopy      #
                  #               Directorship: Frank Neese             #
                  #        Max Planck Institute fuer Kohlenforschung    #
                  #                Kaiser Wilhelm Platz 1               #
                  #                 D-45470 Muelheim/Ruhr               #
                  #                      Germany                        #
                  #                                                     #
                  #                  All rights reserved                #
                  #                        -***-                        #
                  #######################################################


                         Program Version 4.2.0 -  RELEASE  -


 With contributions from (in alphabetic order):
   Daniel Aravena         : Magnetic Suceptibility
   Michael Atanasov       : Ab Initio Ligand Field Theory (pilot matlab implementation)
   Alexander A. Auer      : GIAO ZORA, VPT2
   Ute Becker             : Parallelization
   Giovanni Bistoni       : ED, misc. LED, open-shell LED, HFLED
   Martin Brehm           : Molecular dynamics
   Dmytro Bykov           : SCF Hessian
   Vijay G. Chilkuri      : MRCI spin determinant printing, contributions to CSF-ICE
   Dipayan Datta          : RHF DLPNO-CCSD density
   Achintya Kumar Dutta   : EOM-CC, STEOM-CC
   Dmitry Ganyushin       : Spin-Orbit,Spin-Spin,Magnetic field MRCI
   Miquel Garcia          : C-PCM Hessian, Gaussian charge scheme
   Yang Guo               : DLPNO-NEVPT2, CIM, IAO-localization
   Andreas Hansen         : Spin unrestricted coupled pair/coupled cluster methods
   Benjamin Helmich-Paris : CASSCF linear response (MC-RPA)
   Lee Huntington         : MR-EOM, pCC
   Robert Izsak           : Overlap fitted RIJCOSX, COSX-SCS-MP3, EOM
   Christian Kollmar      : KDIIS, OOCD, Brueckner-CCSD(T), CCSD density
   Simone Kossmann        : Meta GGA functionals, TD-DFT gradient, OOMP2, MP2 Hessian
   Martin Krupicka        : AUTO-CI
   Lucas Lang             : DCDCAS
   Dagmar Lenk            : GEPOL surface, SMD
   Dimitrios Liakos       : Extrapolation schemes; Compound Job, initial MDCI parallelization
   Dimitrios Manganas     : Further ROCIS development; embedding schemes
   Dimitrios Pantazis     : SARC Basis sets
   Taras Petrenko         : DFT Hessian,TD-DFT gradient, ASA, ECA, R-Raman, ABS, FL, XAS/XES, NRVS
   Peter Pinski           : DLPNO-MP2, DLPNO-MP2 Gradient
   Christoph Reimann      : Effective Core Potentials
   Marius Retegan         : Local ZFS, SOC
   Christoph Riplinger    : Optimizer, TS searches, QM/MM, DLPNO-CCSD(T), (RO)-DLPNO pert. Triples
   Tobias Risthaus        : Range-separated hybrids, TD-DFT gradient, RPA, STAB
   Michael Roemelt        : Original ROCIS implementation
   Masaaki Saitow         : Open-shell DLPNO-CCSD energy and density
   Barbara Sandhoefer     : DKH picture change effects
   Avijit Sen             : IP-ROCIS
   Kantharuban Sivalingam : CASSCF convergence, NEVPT2, FIC-MRCI
   Bernardo de Souza      : ESD, SOC TD-DFT
   Georgi Stoychev        : AutoAux, RI-MP2 NMR
   Willem Van den Heuvel  : Paramagnetic NMR
   Boris Wezisla          : Elementary symmetry handling
   Frank Wennmohs         : Technical directorship


 We gratefully acknowledge several colleagues who have allowed us to
 interface, adapt or use parts of their codes:
   Stefan Grimme, W. Hujo, H. Kruse,             : VdW corrections, initial TS optimization,
                  C. Bannwarth                     DFT functionals, gCP, sTDA/sTD-DF
   Ed Valeev, F. Pavosevic, A. Kumar             : LibInt (2-el integral package), F12 methods
   Garnet Chan, S. Sharma, J. Yang, R. Olivares  : DMRG
   Ulf Ekstrom                                   : XCFun DFT Library
   Mihaly Kallay                                 : mrcc  (arbitrary order and MRCC methods)
   Andreas Klamt, Michael Diedenhofen            : otool_cosmo (COSMO solvation model)
   Jiri Pittner, Ondrej Demel                    : Mk-CCSD
   Frank Weinhold                                : gennbo (NPA and NBO analysis)
   Christopher J. Cramer and Donald G. Truhlar   : smd solvation model
   Lars Goerigk                                  : TD-DFT with DH, B97 family of functionals
   V. Asgeirsson, H. Jonsson                     : NEB implementation
   FAccTs GmbH                                   : IRC, NEB, NEB-TS, Multilevel, MM, QM/MM, CI optimization
   S Lehtola, MJT Oliveira, MAL Marques          : LibXC Library


 Your calculation uses the libint2 library for the computation of 2-el integrals
 For citations please refer to: http://libint.valeyev.net

 Your ORCA version has been built with support for libXC version: 4.2.3
 For citations please refer to: https://tddft.org/programs/libxc/

 This ORCA versions uses:
   CBLAS   interface :  Fast vector & matrix operations
   LAPACKE interface :  Fast linear algebra routines
   SCALAPACK package :  Parallel linear algebra routines


Your calculation utilizes the atom-pairwise dispersion correction
with the Becke-Johnson damping scheme (D3BJ)
Cite in your paper:
S.Grimme, S.Ehrlich, L.Goerigk, J Comput Chem, (2011), 32, 1456–1465 
S.Grimme, J.Antony, S.Ehrlich and H.Krieg, J.Chem.Phys., 132, (2010), 154104 
   

----- Orbital basis set information -----
Your calculation utilizes the basis: def2-TZVPPD
   F. Weigend and R. Ahlrichs, Phys. Chem. Chem. Phys. 7, 3297 (2005).
   D. Rappoport and F. Furche, J. Chem. Phys. 133 134105 (2010).

----- AuxJ basis set information -----
Your calculation utilizes the auxiliary basis: def2/J
   F. Weigend, Phys. Chem. Chem. Phys. 8, 1057 (2006).

================================================================================
                                        WARNINGS
                       Please study these warnings very carefully!
================================================================================


INFO   : the flag for use of LIBINT has been found!

================================================================================
                                       INPUT FILE
================================================================================
NAME = 070.in
|  1> #
|  2> # 070 TPSS-D3BJ/Def2-TZVPPD
|  3> #
|  4> ! tpss d3bj def2-tzvppd def2/j grid4 nofinalgrid
|  5> 
|  6> *xyz 0 1
|  7> H          0.08530       -0.02655        1.60712
|  8> H          0.90656       -0.78582       -1.39861
|  9> Be        -0.05035        0.92778       -0.02639
| 10> H          0.07901        0.71807        1.80526
| 11> F         -0.04624       -1.68577        0.17900
| 12> C         -0.00461       -0.62157       -0.79461
| 13> H         -0.11623        2.26790        0.10895
| 14> H         -0.85344       -0.79405       -1.48072
| 15> *
| 16> 
| 17> %maxcore 5000
| 18> 
| 19> %pal
| 20> nprocs = 24
| 21> end
| 22> 
| 23> 
| 24>                          ****END OF INPUT****
================================================================================

                       ****************************
                       * Single Point Calculation *
                       ****************************

---------------------------------
CARTESIAN COORDINATES (ANGSTROEM)
---------------------------------
  H      0.085300   -0.026550    1.607120
  H      0.906560   -0.785820   -1.398610
  Be    -0.050350    0.927780   -0.026390
  H      0.079010    0.718070    1.805260
  F     -0.046240   -1.685770    0.179000
  C     -0.004610   -0.621570   -0.794610
  H     -0.116230    2.267900    0.108950
  H     -0.853440   -0.794050   -1.480720

----------------------------
CARTESIAN COORDINATES (A.U.)
----------------------------
  NO LB      ZA    FRAG     MASS         X           Y           Z
   0 H     1.0000    0     1.008    0.161194   -0.050172    3.037017
   1 H     1.0000    0     1.008    1.713150   -1.484985   -2.642990
   2 Be    4.0000    0     9.012   -0.095148    1.753250   -0.049870
   3 H     1.0000    0     1.008    0.149307    1.356956    3.411447
   4 F     9.0000    0    18.998   -0.087381   -3.185644    0.338261
   5 C     6.0000    0    12.011   -0.008712   -1.174597   -1.501595
   6 H     1.0000    0     1.008   -0.219643    4.285710    0.205886
   7 H     1.0000    0     1.008   -1.612768   -1.500537   -2.798155

--------------------------------
INTERNAL COORDINATES (ANGSTROEM)
--------------------------------
 H      0   0   0     0.000000000000     0.00000000     0.00000000
 H      1   0   0     3.207081500898     0.00000000     0.00000000
 Be     1   2   0     1.896708093382    47.95385863     0.00000000
 H      1   2   3     0.770556920740   118.15536226   332.61515603
 F      2   1   3     2.050997599852    42.60999464   224.74103801
 C      2   1   3     1.105452319822    40.68306355   290.68814003
 H      3   1   2     1.348546886245   114.64955815   203.02665553
 H      6   2   1     1.104992602419   105.70707496   180.80386071

---------------------------
INTERNAL COORDINATES (A.U.)
---------------------------
 H      0   0   0     0.000000000000     0.00000000     0.00000000
 H      1   0   0     6.060505725862     0.00000000     0.00000000
 Be     1   2   0     3.584258852484    47.95385863     0.00000000
 H      1   2   3     1.456141550796   118.15536226   332.61515603
 F      2   1   3     3.875823765051    42.60999464   224.74103801
 C      2   1   3     2.089002138572    40.68306355   290.68814003
 H      3   1   2     2.548384293755   114.64955815   203.02665553
 H      6   2   1     2.088133398580   105.70707496   180.80386071

---------------------
BASIS SET INFORMATION
---------------------
There are 4 groups of distinct atoms

 Group   1 Type H   : 5s3p1d contracted to 3s3p1d pattern {311/111/1}
 Group   2 Type Be  : 11s5p1d contracted to 5s4p1d pattern {62111/1211/1}
 Group   3 Type F   : 12s7p3d1f contracted to 6s4p3d1f pattern {621111/4111/111/1}
 Group   4 Type C   : 12s6p3d1f contracted to 6s3p3d1f pattern {621111/411/111/1}

Atom   0H    basis set group =>   1
Atom   1H    basis set group =>   1
Atom   2Be   basis set group =>   2
Atom   3H    basis set group =>   1
Atom   4F    basis set group =>   3
Atom   5C    basis set group =>   4
Atom   6H    basis set group =>   1
Atom   7H    basis set group =>   1
---------------------------------
AUXILIARY/J BASIS SET INFORMATION
---------------------------------
There are 4 groups of distinct atoms

 Group   1 Type H   : 5s2p1d contracted to 3s1p1d pattern {311/2/1}
 Group   2 Type Be  : 12s5p4d2f1g contracted to 6s4p3d1f1g pattern {711111/2111/211/2/1}
 Group   3 Type F   : 12s5p4d2f1g contracted to 6s4p3d1f1g pattern {711111/2111/211/2/1}
 Group   4 Type C   : 12s5p4d2f1g contracted to 6s4p3d1f1g pattern {711111/2111/211/2/1}

Atom   0H    basis set group =>   1
Atom   1H    basis set group =>   1
Atom   2Be   basis set group =>   2
Atom   3H    basis set group =>   1
Atom   4F    basis set group =>   3
Atom   5C    basis set group =>   4
Atom   6H    basis set group =>   1
Atom   7H    basis set group =>   1


           ************************************************************
           *        Program running with 24 parallel MPI-processes    *
           *              working on a common directory               *
           ************************************************************
------------------------------------------------------------------------------
                           ORCA GTO INTEGRAL CALCULATION
                           -- RI-GTO INTEGRALS CHOSEN --
------------------------------------------------------------------------------

                         BASIS SET STATISTICS AND STARTUP INFO

Gaussian basis set:
 # of primitive gaussian shells          ...  107
 # of primitive gaussian functions       ...  233
 # of contracted shells                  ...   72
 # of contracted basis functions         ...  184
 Highest angular momentum                ...    3
 Maximum contraction depth               ...    6
Auxiliary gaussian basis set:
 # of primitive gaussian shells          ...  112
 # of primitive gaussian functions       ...  290
 # of contracted shells                  ...   70
 # of contracted aux-basis functions     ...  202
 Highest angular momentum                ...    4
 Maximum contraction depth               ...    7
Ratio of auxiliary to basis functions    ...  1.10
Integral package used                  ... LIBINT
 One Electron integrals                  ... done
 Ordering auxiliary basis shells         ... done
 Integral threshhold             Thresh  ...  1.000e-10
 Primitive cut-off               TCut    ...  1.000e-11
 Pre-screening matrix                    ... done
 Shell pair data                         ... 
 Ordering of the shell pairs             ... done (   0.000 sec) 2577 of 2628 pairs
 Determination of significant pairs      ... done (   0.000 sec)
 Creation of shell pair data             ... done (   0.000 sec)
 Storage of shell pair data              ... done (   0.012 sec)
 Shell pair data done in (   0.013 sec)
 Computing two index integrals           ... done
 Cholesky decomposition of the V-matrix  ... done


Timings:
 Total evaluation time                   ...   0.173 sec (  0.003 min)
 One electron matrix time                ...   0.017 sec (  0.000 min) =  9.9%
 Schwartz matrix evaluation time         ...   0.118 sec (  0.002 min) = 67.8%
 Two index repulsion integral time       ...   0.001 sec (  0.000 min) =  0.6%
 Cholesky decomposition of V             ...   0.001 sec (  0.000 min) =  0.6%
 Three index repulsion integral time     ...   0.000 sec (  0.000 min) =  0.0%



           ************************************************************
           *        Program running with 24 parallel MPI-processes    *
           *              working on a common directory               *
           ************************************************************
-------------------------------------------------------------------------------
                                 ORCA SCF
-------------------------------------------------------------------------------

------------
SCF SETTINGS
------------
Hamiltonian:
 Density Functional     Method          .... DFT(GTOs)
 Exchange Functional    Exchange        .... TPSS
 Correlation Functional Correlation     .... TPSS
 LDA part of GGA corr.  LDAOpt          .... PW91-LDA
 Gradients option       PostSCFGGA      .... off
   Density functional embedding theory  .... OFF
   NL short-range parameter             ....  5.000000
 RI-approximation to the Coulomb term is turned on
   Number of auxiliary basis functions  .... 202


General Settings:
 Integral files         IntName         .... 070
 Hartree-Fock type      HFTyp           .... RHF
 Total Charge           Charge          ....    0
 Multiplicity           Mult            ....    1
 Number of Electrons    NEL             ....   24
 Basis Dimension        Dim             ....  184
 Nuclear Repulsion      ENuc            ....     61.1525331119 Eh

Convergence Acceleration:
 DIIS                   CNVDIIS         .... on
   Start iteration      DIISMaxIt       ....    12
   Startup error        DIISStart       ....  0.200000
   # of expansion vecs  DIISMaxEq       ....     5
   Bias factor          DIISBfac        ....   1.050
   Max. coefficient     DIISMaxC        ....  10.000
 Newton-Raphson         CNVNR           .... off
 SOSCF                  CNVSOSCF        .... on
   Start iteration      SOSCFMaxIt      ....   150
   Startup grad/error   SOSCFStart      ....  0.003300
 Level Shifting         CNVShift        .... on
   Level shift para.    LevelShift      ....    0.2500
   Turn off err/grad.   ShiftErr        ....    0.0010
 Zerner damping         CNVZerner       .... off
 Static damping         CNVDamp         .... on
   Fraction old density DampFac         ....    0.7000
   Max. Damping (<1)    DampMax         ....    0.9800
   Min. Damping (>=0)   DampMin         ....    0.0000
   Turn off err/grad.   DampErr         ....    0.1000
 Fernandez-Rico         CNVRico         .... off

SCF Procedure:
 Maximum # iterations   MaxIter         ....   125
 SCF integral mode      SCFMode         .... Direct
   Integral package                     .... LIBINT
 Reset frequency        DirectResetFreq ....    20
 Integral Threshold     Thresh          ....  1.000e-10 Eh
 Primitive CutOff       TCut            ....  1.000e-11 Eh

Convergence Tolerance:
 Convergence Check Mode ConvCheckMode   .... Total+1el-Energy
 Convergence forced     ConvForced      .... 0
 Energy Change          TolE            ....  1.000e-06 Eh
 1-El. energy change                    ....  1.000e-03 Eh
 Orbital Gradient       TolG            ....  5.000e-05
 Orbital Rotation angle TolX            ....  5.000e-05
 DIIS Error             TolErr          ....  1.000e-06


Diagonalization of the overlap matrix:
Smallest eigenvalue                        ... 3.700e-05
Time for diagonalization                   ...    0.007 sec
Threshold for overlap eigenvalues          ... 1.000e-08
Number of eigenvalues below threshold      ... 0
Time for construction of square roots      ...    0.003 sec
Total time needed                          ...    0.011 sec

-------------------
DFT GRID GENERATION
-------------------

General Integration Accuracy     IntAcc      ...  4.670
Radial Grid Type                 RadialGrid  ... Gauss-Chebyshev
Angular Grid (max. acc.)         AngularGrid ... Lebedev-302
Angular grid pruning method      GridPruning ... 3 (G Style)
Weight generation scheme         WeightScheme... Becke
Basis function cutoff            BFCut       ...    1.0000e-10
Integration weight cutoff        WCut        ...    1.0000e-14
Grids for H and He will be reduced by one unit

# of grid points (after initial pruning)     ...  35414 (   0.0 sec)
# of grid points (after weights+screening)   ...  33837 (   0.0 sec)
nearest neighbour list constructed           ...    0.0 sec
Grid point re-assignment to atoms done       ...    0.0 sec
Grid point division into batches done        ...    0.1 sec
Reduced shell lists constructed in    0.1 sec

Total number of grid points                  ...    33837
Total number of batches                      ...      532
Average number of points per batch           ...       63
Average number of grid points per atom       ...     4230
Average number of shells per batch           ...    42.46 (58.97%)
Average number of basis functions per batch  ...   106.38 (57.81%)
Average number of large shells per batch     ...    34.42 (81.06%)
Average number of large basis fcns per batch ...    84.58 (79.51%)
Maximum spatial batch extension              ...  18.83, 12.62, 17.46 au
Average spatial batch extension              ...   0.28,  0.21,  0.26 au

Time for grid setup =    0.175 sec

------------------------------
INITIAL GUESS: MODEL POTENTIAL
------------------------------
Loading Hartree-Fock densities                     ... done
Calculating cut-offs                               ... done
Setting up the integral package                    ... done
Initializing the effective Hamiltonian             ... done
Starting the Coulomb interaction                   ... done (   0.0 sec)
Reading the grid                                   ... done
Mapping shells                                     ... done
Starting the XC term evaluation                    ... done (   0.0 sec)
  promolecular density results
     # of electrons  =     23.997510267
     EX              =    -19.209779643
     EC              =     -0.735359335
     EX+EC           =    -19.945138978
Transforming the Hamiltonian                       ... done (   0.0 sec)
Diagonalizing the Hamiltonian                      ... done (   0.0 sec)
Back transforming the eigenvectors                 ... done (   0.0 sec)
Now organizing SCF variables                       ... done
                      ------------------
                      INITIAL GUESS DONE (   0.3 sec)
                      ------------------
--------------
SCF ITERATIONS
--------------
ITER       Energy         Delta-E        Max-DP      RMS-DP      [F,P]     Damp
               ***  Starting incremental Fock matrix formation  ***
  0   -155.6804114544   0.000000000000 0.02535250  0.00083168  0.1401900 0.7000
  1   -155.7033719607  -0.022960506317 0.02073875  0.00067624  0.0724811 0.7000
                               ***Turning on DIIS***
  2   -155.7132088836  -0.009836922943 0.05154126  0.00153127  0.0464672 0.0000
  3   -155.7277084567  -0.014499573110 0.01613303  0.00041611  0.0437848 0.0000
  4   -155.7313548729  -0.003646416167 0.00881915  0.00014434  0.0077147 0.0000
  5   -155.7315128941  -0.000158021209 0.00439079  0.00006379  0.0035191 0.0000
                      *** Initiating the SOSCF procedure ***
                           *** Shutting down DIIS ***
                      *** Re-Reading the Fockian *** 
                      *** Removing any level shift *** 
ITER      Energy       Delta-E        Grad      Rot      Max-DP    RMS-DP
  6   -155.73153000  -0.0000171045  0.000232  0.000232  0.001689  0.000031
               *** Restarting incremental Fock matrix formation ***
  7   -155.73153541  -0.0000054089  0.000082  0.000260  0.001044  0.000028
  8   -155.73153562  -0.0000002121  0.000033  0.000042  0.000162  0.000004
  9   -155.73153564  -0.0000000233  0.000021  0.000032  0.000111  0.000003
                 **** Energy Check signals convergence ****
              ***Rediagonalizing the Fockian in SOSCF/NRSCF***

               *****************************************************
               *                     SUCCESS                       *
               *           SCF CONVERGED AFTER  10 CYCLES          *
               *****************************************************


----------------
TOTAL SCF ENERGY
----------------

Total Energy       :         -155.73153566 Eh           -4237.67052 eV

Components:
Nuclear Repulsion  :           61.15253311 Eh            1664.04502 eV
Electronic Energy  :         -216.88406877 Eh           -5901.71555 eV
One Electron Energy:         -334.60028525 Eh           -9104.93665 eV
Two Electron Energy:          117.71621648 Eh            3203.22110 eV

Virial components:
Potential Energy   :         -310.74368450 Eh           -8455.76554 eV
Kinetic Energy     :          155.01214884 Eh            4218.09501 eV
Virial Ratio       :            2.00464084


DFT components:
N(Alpha)           :       11.999977456999 electrons
N(Beta)            :       11.999977456999 electrons
N(Total)           :       23.999954913998 electrons
E(X)               :      -19.874458342302 Eh       
E(C)               :       -0.737450883945 Eh       
E(XC)              :      -20.611909226246 Eh       
DFET-embed. en.    :        0.000000000000 Eh       

---------------
SCF CONVERGENCE
---------------

  Last Energy change         ...   -1.8347e-08  Tolerance :   1.0000e-06
  Last MAX-Density change    ...    6.8797e-05  Tolerance :   1.0000e-05
  Last RMS-Density change    ...    1.1783e-06  Tolerance :   1.0000e-06
  Last Orbital Gradient      ...    1.5727e-05  Tolerance :   5.0000e-05
  Last Orbital Rotation      ...    1.7882e-05  Tolerance :   5.0000e-05

             **** THE GBW FILE WAS UPDATED (070.gbw) ****
             **** DENSITY FILE WAS UPDATED (070.scfp) ****
             **** ENERGY FILE WAS UPDATED (070.en.tmp) ****
             **** THE GBW FILE WAS UPDATED (070.gbw) ****
             **** DENSITY FILE WAS UPDATED (070.scfp) ****
----------------
ORBITAL ENERGIES
----------------

  NO   OCC          E(Eh)            E(eV) 
   0   2.0000     -24.382274      -663.4754 
   1   2.0000     -10.027201      -272.8540 
   2   2.0000      -3.897222      -106.0488 
   3   2.0000      -1.089169       -29.6378 
   4   2.0000      -0.616013       -16.7626 
   5   2.0000      -0.481809       -13.1107 
   6   2.0000      -0.419511       -11.4155 
   7   2.0000      -0.410752       -11.1771 
   8   2.0000      -0.370142       -10.0721 
   9   2.0000      -0.292211        -7.9515 
  10   2.0000      -0.290567        -7.9067 
  11   2.0000      -0.245722        -6.6864 
  12   0.0000      -0.048709        -1.3254 
  13   0.0000      -0.018594        -0.5060 
  14   0.0000      -0.002042        -0.0556 
  15   0.0000       0.012825         0.3490 
  16   0.0000       0.021895         0.5958 
  17   0.0000       0.036396         0.9904 
  18   0.0000       0.038606         1.0505 
  19   0.0000       0.069958         1.9037 
  20   0.0000       0.091076         2.4783 
  21   0.0000       0.093038         2.5317 
  22   0.0000       0.096941         2.6379 
  23   0.0000       0.111212         3.0262 
  24   0.0000       0.116141         3.1603 
  25   0.0000       0.144541         3.9332 
  26   0.0000       0.147729         4.0199 
  27   0.0000       0.150552         4.0967 
  28   0.0000       0.174536         4.7494 
  29   0.0000       0.181827         4.9478 
  30   0.0000       0.184968         5.0332 
  31   0.0000       0.214564         5.8386 
  32   0.0000       0.220312         5.9950 
  33   0.0000       0.221935         6.0392 
  34   0.0000       0.235336         6.4038 
  35   0.0000       0.238293         6.4843 
  36   0.0000       0.253067         6.8863 
  37   0.0000       0.262523         7.1436 
  38   0.0000       0.286672         7.8007 
  39   0.0000       0.287774         7.8307 
  40   0.0000       0.297070         8.0837 
  41   0.0000       0.309482         8.4214 
  42   0.0000       0.311679         8.4812 
  43   0.0000       0.334641         9.1061 
  44   0.0000       0.336974         9.1695 
  45   0.0000       0.349987         9.5236 
  46   0.0000       0.366537         9.9740 
  47   0.0000       0.403276        10.9737 
  48   0.0000       0.410195        11.1620 
  49   0.0000       0.434504        11.8235 
  50   0.0000       0.441180        12.0051 
  51   0.0000       0.448578        12.2064 
  52   0.0000       0.459034        12.4909 
  53   0.0000       0.483575        13.1587 
  54   0.0000       0.522160        14.2087 
  55   0.0000       0.526715        14.3326 
  56   0.0000       0.541790        14.7429 
  57   0.0000       0.569165        15.4878 
  58   0.0000       0.592485        16.1223 
  59   0.0000       0.597144        16.2491 
  60   0.0000       0.613435        16.6924 
  61   0.0000       0.630243        17.1498 
  62   0.0000       0.638609        17.3774 
  63   0.0000       0.644668        17.5423 
  64   0.0000       0.671298        18.2670 
  65   0.0000       0.685793        18.6614 
  66   0.0000       0.700366        19.0579 
  67   0.0000       0.718410        19.5489 
  68   0.0000       0.737917        20.0797 
  69   0.0000       0.772942        21.0328 
  70   0.0000       0.786602        21.4045 
  71   0.0000       0.822395        22.3785 
  72   0.0000       0.852110        23.1871 
  73   0.0000       0.880070        23.9479 
  74   0.0000       0.970562        26.4103 
  75   0.0000       0.998603        27.1734 
  76   0.0000       1.008569        27.4446 
  77   0.0000       1.022111        27.8131 
  78   0.0000       1.037329        28.2272 
  79   0.0000       1.063299        28.9338 
  80   0.0000       1.094021        29.7698 
  81   0.0000       1.109627        30.1945 
  82   0.0000       1.135064        30.8867 
  83   0.0000       1.163224        31.6529 
  84   0.0000       1.171646        31.8821 
  85   0.0000       1.231887        33.5213 
  86   0.0000       1.233942        33.5773 
  87   0.0000       1.288148        35.0523 
  88   0.0000       1.325603        36.0715 
  89   0.0000       1.332308        36.2540 
  90   0.0000       1.388653        37.7872 
  91   0.0000       1.454709        39.5846 
  92   0.0000       1.482019        40.3278 
  93   0.0000       1.547439        42.1080 
  94   0.0000       1.627070        44.2748 
  95   0.0000       1.633842        44.4591 
  96   0.0000       1.806665        49.1619 
  97   0.0000       1.811696        49.2988 
  98   0.0000       2.060374        56.0656 
  99   0.0000       2.187389        59.5219 
 100   0.0000       2.277655        61.9781 
 101   0.0000       2.330765        63.4234 
 102   0.0000       2.349833        63.9422 
 103   0.0000       2.479549        67.4720 
 104   0.0000       2.512563        68.3703 
 105   0.0000       2.566745        69.8447 
 106   0.0000       2.585652        70.3592 
 107   0.0000       2.752254        74.8926 
 108   0.0000       2.763319        75.1937 
 109   0.0000       2.823526        76.8320 
 110   0.0000       2.879547        78.3564 
 111   0.0000       2.946248        80.1715 
 112   0.0000       2.980748        81.1103 
 113   0.0000       3.014222        82.0211 
 114   0.0000       3.016132        82.0731 
 115   0.0000       3.063206        83.3541 
 116   0.0000       3.127461        85.1025 
 117   0.0000       3.172703        86.3336 
 118   0.0000       3.188998        86.7771 
 119   0.0000       3.230016        87.8932 
 120   0.0000       3.338323        90.8404 
 121   0.0000       3.342590        90.9565 
 122   0.0000       3.366478        91.6065 
 123   0.0000       3.393450        92.3405 
 124   0.0000       3.441334        93.6435 
 125   0.0000       3.469901        94.4208 
 126   0.0000       3.482774        94.7711 
 127   0.0000       3.497849        95.1813 
 128   0.0000       3.514500        95.6344 
 129   0.0000       3.544992        96.4641 
 130   0.0000       3.588500        97.6481 
 131   0.0000       3.641074        99.0787 
 132   0.0000       3.685055       100.2755 
 133   0.0000       3.710912       100.9791 
 134   0.0000       3.761779       102.3632 
 135   0.0000       3.782806       102.9354 
 136   0.0000       3.817253       103.8727 
 137   0.0000       3.832465       104.2867 
 138   0.0000       3.844428       104.6122 
 139   0.0000       3.880423       105.5917 
 140   0.0000       3.929994       106.9406 
 141   0.0000       4.002257       108.9069 
 142   0.0000       4.054396       110.3257 
 143   0.0000       4.095823       111.4530 
 144   0.0000       4.147196       112.8509 
 145   0.0000       4.151909       112.9792 
 146   0.0000       4.162505       113.2675 
 147   0.0000       4.169104       113.4471 
 148   0.0000       4.256629       115.8288 
 149   0.0000       4.280192       116.4699 
 150   0.0000       4.292402       116.8022 
 151   0.0000       4.425347       120.4198 
 152   0.0000       4.511736       122.7706 
 153   0.0000       4.722491       128.5055 
 154   0.0000       4.725139       128.5776 
 155   0.0000       4.931767       134.2002 
 156   0.0000       4.939926       134.4222 
 157   0.0000       5.182514       141.0234 
 158   0.0000       5.213105       141.8558 
 159   0.0000       5.347784       145.5206 
 160   0.0000       5.411388       147.2513 
 161   0.0000       5.423133       147.5709 
 162   0.0000       5.506612       149.8425 
 163   0.0000       5.514968       150.0699 
 164   0.0000       5.693090       154.9168 
 165   0.0000       5.712027       155.4322 
 166   0.0000       5.985927       162.8853 
 167   0.0000       6.760777       183.9701 
 168   0.0000       6.901829       187.8083 
 169   0.0000       6.925723       188.4585 
 170   0.0000       6.985196       190.0768 
 171   0.0000       7.051785       191.8888 
 172   0.0000       7.235592       196.8905 
 173   0.0000       7.270224       197.8329 
 174   0.0000       7.270510       197.8406 
 175   0.0000       7.369951       200.5466 
 176   0.0000       8.064843       219.4555 
 177   0.0000       8.507587       231.5032 
 178   0.0000       8.525082       231.9793 
 179   0.0000       8.765315       238.5163 
 180   0.0000       8.787432       239.1182 
 181   0.0000       9.280070       252.5236 
 182   0.0000      22.944165       624.3425 
 183   0.0000      57.258631      1558.0866 

                    ********************************
                    * MULLIKEN POPULATION ANALYSIS *
                    ********************************

-----------------------
MULLIKEN ATOMIC CHARGES
-----------------------
   0 H :    0.097740
   1 H :   -0.050202
   2 Be:    0.062626
   3 H :   -0.027518
   4 F :   -0.317712
   5 C :    0.357563
   6 H :   -0.078796
   7 H :   -0.043701
Sum of atomic charges:    0.0000000

--------------------------------
MULLIKEN REDUCED ORBITAL CHARGES
--------------------------------
  0 H s       :     0.854723  s :     0.854723
      pz      :     0.014645  p :     0.047235
      px      :     0.000880
      py      :     0.031710
      dz2     :     0.000080  d :     0.000301
      dxz     :     0.000008
      dyz     :    -0.000027
      dx2y2   :     0.000236
      dxy     :     0.000005
  1 H s       :     0.993524  s :     0.993524
      pz      :     0.015134  p :     0.055059
      px      :     0.022786
      py      :     0.017140
      dz2     :     0.000356  d :     0.001618
      dxz     :     0.000235
      dyz     :     0.000234
      dx2y2   :     0.000360
      dxy     :     0.000434
  2 Bes       :     2.773459  s :     2.773459
      pz      :     0.208246  p :     1.077607
      px      :     0.039633
      py      :     0.829728
      dz2     :     0.026387  d :     0.086309
      dxz     :     0.005310
      dyz     :     0.024759
      dx2y2   :     0.014864
      dxy     :     0.014989
  3 H s       :     0.963550  s :     0.963550
      pz      :     0.016885  p :     0.063706
      px      :     0.000590
      py      :     0.046231
      dz2     :    -0.000066  d :     0.000262
      dxz     :     0.000003
      dyz     :     0.000157
      dx2y2   :     0.000167
      dxy     :     0.000000
  4 F s       :     3.953531  s :     3.953531
      pz      :     1.714816  p :     5.335362
      px      :     1.951391
      py      :     1.669155
      dz2     :     0.007540  d :     0.028374
      dxz     :     0.005166
      dyz     :     0.005981
      dx2y2   :     0.005574
      dxy     :     0.004111
      f0      :     0.000046  f :     0.000446
      f+1     :     0.000014
      f-1     :     0.000135
      f+2     :     0.000128
      f-2     :     0.000059
      f+3     :     0.000024
      f-3     :     0.000040
  5 C s       :     3.045896  s :     3.045896
      pz      :     0.771893  p :     2.510540
      px      :     0.890964
      py      :     0.847682
      dz2     :    -0.033098  d :     0.076506
      dxz     :     0.034409
      dyz     :     0.024191
      dx2y2   :     0.041847
      dxy     :     0.009156
      f0      :     0.001376  f :     0.009495
      f+1     :     0.000377
      f-1     :     0.002096
      f+2     :     0.001906
      f-2     :     0.001930
      f+3     :     0.000902
      f-3     :     0.000908
  6 H s       :     1.058594  s :     1.058594
      pz      :     0.004378  p :     0.019740
      px      :     0.000873
      py      :     0.014490
      dz2     :     0.000105  d :     0.000461
      dxz     :    -0.000000
      dyz     :     0.000043
      dx2y2   :     0.000309
      dxy     :     0.000005
  7 H s       :     0.985629  s :     0.985629
      pz      :     0.019499  p :     0.056455
      px      :     0.019074
      py      :     0.017883
      dz2     :     0.000418  d :     0.001617
      dxz     :     0.000164
      dyz     :     0.000295
      dx2y2   :     0.000373
      dxy     :     0.000368


                     *******************************
                     * LOEWDIN POPULATION ANALYSIS *
                     *******************************

----------------------
LOEWDIN ATOMIC CHARGES
----------------------
   0 H :    0.076196
   1 H :   -0.053958
   2 Be:    0.363838
   3 H :    0.071600
   4 F :   -0.169505
   5 C :   -0.124280
   6 H :   -0.109273
   7 H :   -0.054618

-------------------------------
LOEWDIN REDUCED ORBITAL CHARGES
-------------------------------
  0 H s       :     0.726802  s :     0.726802
      pz      :     0.064397  p :     0.190678
      px      :     0.004746
      py      :     0.121535
      dz2     :     0.001181  d :     0.006324
      dxz     :     0.000018
      dyz     :     0.000896
      dx2y2   :     0.004201
      dxy     :     0.000029
  1 H s       :     0.727715  s :     0.727715
      pz      :     0.090359  p :     0.297887
      px      :     0.127030
      py      :     0.080499
      dz2     :     0.004745  d :     0.028355
      dxz     :     0.008217
      dyz     :     0.003405
      dx2y2   :     0.006595
      dxy     :     0.005394
  2 Bes       :     2.457997  s :     2.457997
      pz      :     0.218370  p :     0.921261
      px      :     0.047604
      py      :     0.655287
      dz2     :     0.090697  d :     0.256903
      dxz     :     0.011515
      dyz     :     0.059016
      dx2y2   :     0.064064
      dxy     :     0.031612
  3 H s       :     0.762261  s :     0.762261
      pz      :     0.065464  p :     0.160052
      px      :     0.001264
      py      :     0.093324
      dz2     :     0.000734  d :     0.006086
      dxz     :     0.000015
      dyz     :     0.001570
      dx2y2   :     0.003763
      dxy     :     0.000004
  4 F s       :     3.637565  s :     3.637565
      pz      :     1.715092  p :     5.270343
      px      :     1.856453
      py      :     1.698798
      dz2     :     0.066114  d :     0.260523
      dxz     :     0.042692
      dyz     :     0.067030
      dx2y2   :     0.049603
      dxy     :     0.035082
      f0      :     0.000142  f :     0.001074
      f+1     :     0.000036
      f-1     :     0.000302
      f+2     :     0.000237
      f-2     :     0.000181
      f+3     :     0.000073
      f-3     :     0.000104
  5 C s       :     2.735093  s :     2.735093
      pz      :     0.822674  p :     2.680977
      px      :     0.955111
      py      :     0.903192
      dz2     :     0.126476  d :     0.643248
      dxz     :     0.143226
      dyz     :     0.165547
      dx2y2   :     0.155580
      dxy     :     0.052418
      f0      :     0.009855  f :     0.064963
      f+1     :     0.003057
      f-1     :     0.014666
      f+2     :     0.014372
      f-2     :     0.011088
      f+3     :     0.005212
      f-3     :     0.006712
  6 H s       :     1.017685  s :     1.017685
      pz      :     0.020625  p :     0.088958
      px      :     0.002431
      py      :     0.065902
      dz2     :     0.000590  d :     0.002631
      dxz     :     0.000001
      dyz     :     0.000278
      dx2y2   :     0.001691
      dxy     :     0.000070
  7 H s       :     0.727588  s :     0.727588
      pz      :     0.096622  p :     0.298614
      px      :     0.120990
      py      :     0.081003
      dz2     :     0.005496  d :     0.028417
      dxz     :     0.008112
      dyz     :     0.004221
      dx2y2   :     0.005996
      dxy     :     0.004591


                      *****************************
                      * MAYER POPULATION ANALYSIS *
                      *****************************

  NA   - Mulliken gross atomic population
  ZA   - Total nuclear charge
  QA   - Mulliken gross atomic charge
  VA   - Mayer's total valence
  BVA  - Mayer's bonded valence
  FA   - Mayer's free valence

  ATOM       NA         ZA         QA         VA         BVA        FA
  0 H      0.9023     1.0000     0.0977     1.0532     1.0532     0.0000
  1 H      1.0502     1.0000    -0.0502     1.0934     1.0934     0.0000
  2 Be     3.9374     4.0000     0.0626     2.3534     2.3534     0.0000
  3 H      1.0275     1.0000    -0.0275     1.0545     1.0545     0.0000
  4 F      9.3177     9.0000    -0.3177     0.8678     0.8678     0.0000
  5 C      5.6424     6.0000     0.3576     3.8588     3.8588     0.0000
  6 H      1.0788     1.0000    -0.0788     1.0413     1.0413     0.0000
  7 H      1.0437     1.0000    -0.0437     1.1051     1.1051     0.0000

  Mayer bond orders larger than 0.100000
B(  0-H ,  2-Be) :   0.1660 B(  0-H ,  3-H ) :   0.8694 B(  1-H ,  5-C ) :   1.0143 
B(  2-Be,  3-H ) :   0.1872 B(  2-Be,  5-C ) :   1.0557 B(  2-Be,  6-H ) :   0.8732 
B(  4-F ,  5-C ) :   0.7386 B(  5-C ,  7-H ) :   1.0156 

-------
TIMINGS
-------

Total SCF time: 0 days 0 hours 0 min 1 sec 

Total time                  ....       1.807 sec
Sum of individual times     ....       1.686 sec  ( 93.3%)

Fock matrix formation       ....       1.343 sec  ( 74.3%)
  Split-RI-J                ....       0.828 sec  ( 61.7% of F)
  XC integration            ....       0.466 sec  ( 34.7% of F)
    Basis function eval.    ....       0.056 sec  ( 12.0% of XC)
    Density eval.           ....       0.085 sec  ( 18.4% of XC)
    XC-Functional eval.     ....       0.030 sec  (  6.4% of XC)
    XC-Potential eval.      ....       0.178 sec  ( 38.3% of XC)
Diagonalization             ....       0.030 sec  (  1.7%)
Density matrix formation    ....       0.009 sec  (  0.5%)
Population analysis         ....       0.006 sec  (  0.3%)
Initial guess               ....       0.100 sec  (  5.6%)
Orbital Transformation      ....       0.000 sec  (  0.0%)
Orbital Orthonormalization  ....       0.000 sec  (  0.0%)
DIIS solution               ....       0.011 sec  (  0.6%)
SOSCF solution              ....       0.011 sec  (  0.6%)
Grid generation             ....       0.175 sec  (  9.7%)


-------------------------------------------------------------------------------
                          DFT DISPERSION CORRECTION                            
                                                                               
                              DFTD3 V3.1  Rev 1                                
                          USING Becke-Johnson damping                          
-------------------------------------------------------------------------------
The TPSS functional is recognized
Active option DFTDOPT                   ...         4   

molecular C6(AA) [au] = 518.176448 


            DFT-D V3
 parameters
 s6 scaling factor         :     1.0000 
 a1 scaling factor         :     0.4535 
 s8 scaling factor         :     1.9435 
 a2 scaling factor         :     4.4752 
 ad hoc parameters k1-k3   :    16.0000     1.3333    -4.0000 

 Edisp/kcal,au: -2.790295552866  -0.004446618530 
 E6   /kcal   :  -1.429677502 
 E8   /kcal   :  -1.360618051 
 % E8         :  48.762506526 

-------------------------   ----------------
Dispersion correction           -0.004446619
-------------------------   ----------------


-------------------------   --------------------
FINAL SINGLE POINT ENERGY      -155.735982279602
-------------------------   --------------------


                            ***************************************
                            *     ORCA property calculations      *
                            ***************************************

                                    ---------------------
                                    Active property flags
                                    ---------------------
   (+) Dipole Moment


------------------------------------------------------------------------------
                       ORCA ELECTRIC PROPERTIES CALCULATION
------------------------------------------------------------------------------

Dipole Moment Calculation                       ... on
Quadrupole Moment Calculation                   ... off
Polarizability Calculation                      ... off
GBWName                                         ... 070.gbw
Electron density file                           ... 070.scfp
The origin for moment calculation is the CENTER OF MASS  = (-0.053914, -1.247217 -0.240472)

-------------
DIPOLE MOMENT
-------------
                                X             Y             Z
Electronic contribution:     -0.19952      -3.59589      -0.71285
Nuclear contribution   :      0.26588       3.83479       0.81982
                        -----------------------------------------
Total Dipole Moment    :      0.06635       0.23891       0.10698
                        -----------------------------------------
Magnitude (a.u.)       :      0.27004
Magnitude (Debye)      :      0.68640



--------------------
Rotational spectrum 
--------------------
 
Rotational constants in cm-1:     0.879452     0.304630     0.236523 
Rotational constants in MHz : 26365.310047  9132.583609  7090.795310 

 Dipole components along the rotational axes: 
x,y,z [a.u.] :     0.238910     0.106975    -0.066352 
x,y,z [Debye]:     0.607260     0.271910    -0.168653 

 

Timings for individual modules:

Sum of individual times         ...        2.709 sec (=   0.045 min)
GTO integral calculation        ...        0.562 sec (=   0.009 min)  20.7 %
SCF iterations                  ...        2.148 sec (=   0.036 min)  79.3 %
                             ****ORCA TERMINATED NORMALLY****
TOTAL RUN TIME: 0 days 0 hours 0 minutes 3 seconds 175 msec
