
                                 *****************
                                 * O   R   C   A *
                                 *****************

           --- An Ab Initio, DFT and Semiempirical electronic structure package ---

                  #######################################################
                  #                        -***-                        #
                  #          Department of theory and spectroscopy      #
                  #               Directorship: Frank Neese             #
                  #        Max Planck Institute fuer Kohlenforschung    #
                  #                Kaiser Wilhelm Platz 1               #
                  #                 D-45470 Muelheim/Ruhr               #
                  #                      Germany                        #
                  #                                                     #
                  #                  All rights reserved                #
                  #                        -***-                        #
                  #######################################################


                         Program Version 4.2.0 -  RELEASE  -


 With contributions from (in alphabetic order):
   Daniel Aravena         : Magnetic Suceptibility
   Michael Atanasov       : Ab Initio Ligand Field Theory (pilot matlab implementation)
   Alexander A. Auer      : GIAO ZORA, VPT2
   Ute Becker             : Parallelization
   Giovanni Bistoni       : ED, misc. LED, open-shell LED, HFLED
   Martin Brehm           : Molecular dynamics
   Dmytro Bykov           : SCF Hessian
   Vijay G. Chilkuri      : MRCI spin determinant printing, contributions to CSF-ICE
   Dipayan Datta          : RHF DLPNO-CCSD density
   Achintya Kumar Dutta   : EOM-CC, STEOM-CC
   Dmitry Ganyushin       : Spin-Orbit,Spin-Spin,Magnetic field MRCI
   Miquel Garcia          : C-PCM Hessian, Gaussian charge scheme
   Yang Guo               : DLPNO-NEVPT2, CIM, IAO-localization
   Andreas Hansen         : Spin unrestricted coupled pair/coupled cluster methods
   Benjamin Helmich-Paris : CASSCF linear response (MC-RPA)
   Lee Huntington         : MR-EOM, pCC
   Robert Izsak           : Overlap fitted RIJCOSX, COSX-SCS-MP3, EOM
   Christian Kollmar      : KDIIS, OOCD, Brueckner-CCSD(T), CCSD density
   Simone Kossmann        : Meta GGA functionals, TD-DFT gradient, OOMP2, MP2 Hessian
   Martin Krupicka        : AUTO-CI
   Lucas Lang             : DCDCAS
   Dagmar Lenk            : GEPOL surface, SMD
   Dimitrios Liakos       : Extrapolation schemes; Compound Job, initial MDCI parallelization
   Dimitrios Manganas     : Further ROCIS development; embedding schemes
   Dimitrios Pantazis     : SARC Basis sets
   Taras Petrenko         : DFT Hessian,TD-DFT gradient, ASA, ECA, R-Raman, ABS, FL, XAS/XES, NRVS
   Peter Pinski           : DLPNO-MP2, DLPNO-MP2 Gradient
   Christoph Reimann      : Effective Core Potentials
   Marius Retegan         : Local ZFS, SOC
   Christoph Riplinger    : Optimizer, TS searches, QM/MM, DLPNO-CCSD(T), (RO)-DLPNO pert. Triples
   Tobias Risthaus        : Range-separated hybrids, TD-DFT gradient, RPA, STAB
   Michael Roemelt        : Original ROCIS implementation
   Masaaki Saitow         : Open-shell DLPNO-CCSD energy and density
   Barbara Sandhoefer     : DKH picture change effects
   Avijit Sen             : IP-ROCIS
   Kantharuban Sivalingam : CASSCF convergence, NEVPT2, FIC-MRCI
   Bernardo de Souza      : ESD, SOC TD-DFT
   Georgi Stoychev        : AutoAux, RI-MP2 NMR
   Willem Van den Heuvel  : Paramagnetic NMR
   Boris Wezisla          : Elementary symmetry handling
   Frank Wennmohs         : Technical directorship


 We gratefully acknowledge several colleagues who have allowed us to
 interface, adapt or use parts of their codes:
   Stefan Grimme, W. Hujo, H. Kruse,             : VdW corrections, initial TS optimization,
                  C. Bannwarth                     DFT functionals, gCP, sTDA/sTD-DF
   Ed Valeev, F. Pavosevic, A. Kumar             : LibInt (2-el integral package), F12 methods
   Garnet Chan, S. Sharma, J. Yang, R. Olivares  : DMRG
   Ulf Ekstrom                                   : XCFun DFT Library
   Mihaly Kallay                                 : mrcc  (arbitrary order and MRCC methods)
   Andreas Klamt, Michael Diedenhofen            : otool_cosmo (COSMO solvation model)
   Jiri Pittner, Ondrej Demel                    : Mk-CCSD
   Frank Weinhold                                : gennbo (NPA and NBO analysis)
   Christopher J. Cramer and Donald G. Truhlar   : smd solvation model
   Lars Goerigk                                  : TD-DFT with DH, B97 family of functionals
   V. Asgeirsson, H. Jonsson                     : NEB implementation
   FAccTs GmbH                                   : IRC, NEB, NEB-TS, Multilevel, MM, QM/MM, CI optimization
   S Lehtola, MJT Oliveira, MAL Marques          : LibXC Library


 Your calculation uses the libint2 library for the computation of 2-el integrals
 For citations please refer to: http://libint.valeyev.net

 Your ORCA version has been built with support for libXC version: 4.2.3
 For citations please refer to: https://tddft.org/programs/libxc/

 This ORCA versions uses:
   CBLAS   interface :  Fast vector & matrix operations
   LAPACKE interface :  Fast linear algebra routines
   SCALAPACK package :  Parallel linear algebra routines


Your calculation utilizes the atom-pairwise dispersion correction
with the Becke-Johnson damping scheme (D3BJ)
Cite in your paper:
S.Grimme, S.Ehrlich, L.Goerigk, J Comput Chem, (2011), 32, 1456–1465 
S.Grimme, J.Antony, S.Ehrlich and H.Krieg, J.Chem.Phys., 132, (2010), 154104 
   

----- Orbital basis set information -----
Your calculation utilizes the basis: def2-TZVPPD
   F. Weigend and R. Ahlrichs, Phys. Chem. Chem. Phys. 7, 3297 (2005).
   D. Rappoport and F. Furche, J. Chem. Phys. 133 134105 (2010).

----- AuxJ basis set information -----
Your calculation utilizes the auxiliary basis: def2/J
   F. Weigend, Phys. Chem. Chem. Phys. 8, 1057 (2006).

================================================================================
                                        WARNINGS
                       Please study these warnings very carefully!
================================================================================


WARNING: your system is open-shell and RHF/RKS was chosen
  ===> : WILL SWITCH to UHF/UKS


INFO   : the flag for use of LIBINT has been found!

================================================================================
                                       INPUT FILE
================================================================================
NAME = 104.in
|  1> #
|  2> # 104 TPSS-D3BJ/Def2-TZVPPD
|  3> #
|  4> ! tpss d3bj def2-tzvppd def2/j grid4 nofinalgrid
|  5> 
|  6> *xyz 0 2
|  7> C          0.18239        0.81792       -0.17289
|  8> H         -2.32613        0.04031        1.01174
|  9> H          2.24798        0.73105       -0.01871
| 10> C          1.34005        0.10819       -0.12066
| 11> H          0.11379        1.91914       -0.21133
| 12> Si        -1.43329       -0.14152       -0.20061
| 13> H         -1.02937       -1.64029       -0.13873
| 14> Li         0.90457       -1.83481       -0.14881
| 15> *
| 16> 
| 17> %maxcore 5000
| 18> 
| 19> %pal
| 20> nprocs = 24
| 21> end
| 22> 
| 23> 
| 24>                          ****END OF INPUT****
================================================================================

                       ****************************
                       * Single Point Calculation *
                       ****************************

---------------------------------
CARTESIAN COORDINATES (ANGSTROEM)
---------------------------------
  C      0.182390    0.817920   -0.172890
  H     -2.326130    0.040310    1.011740
  H      2.247980    0.731050   -0.018710
  C      1.340050    0.108190   -0.120660
  H      0.113790    1.919140   -0.211330
  Si    -1.433290   -0.141520   -0.200610
  H     -1.029370   -1.640290   -0.138730
  Li     0.904570   -1.834810   -0.148810

----------------------------
CARTESIAN COORDINATES (A.U.)
----------------------------
  NO LB      ZA    FRAG     MASS         X           Y           Z
   0 C     6.0000    0    12.011    0.344667    1.545645   -0.326715
   1 H     1.0000    0     1.008   -4.395749    0.076175    1.911912
   2 H     1.0000    0     1.008    4.248067    1.381484   -0.035357
   3 C     6.0000    0    12.011    2.532328    0.204449   -0.228014
   4 H     1.0000    0     1.008    0.215032    3.626649   -0.399356
   5 Si   14.0000    0    28.086   -2.708526   -0.267434   -0.379098
   6 H     1.0000    0     1.008   -1.945227   -3.099699   -0.262162
   7 Li    3.0000    0     6.941    1.709390   -3.467288   -0.281210

--------------------------------
INTERNAL COORDINATES (ANGSTROEM)
--------------------------------
 C      0   0   0     0.000000000000     0.00000000     0.00000000
 H      1   0   0     2.881093219492     0.00000000     0.00000000
 H      1   2   0     2.073156992946   145.65110357     0.00000000
 C      3   1   2     1.105750996834    36.74033397    60.26063611
 H      1   2   4     1.104024040499   103.26355878   206.01422625
 Si     2   1   3     1.516581002453    36.00953826   245.85043630
 H      6   2   1     1.553477394010   103.70381678   115.06980497
 Li     7   6   2     1.943724147198   110.79629298   235.24261074

---------------------------
INTERNAL COORDINATES (A.U.)
---------------------------
 C      0   0   0     0.000000000000     0.00000000     0.00000000
 H      1   0   0     5.444477151136     0.00000000     0.00000000
 H      1   2   0     3.917698949291   145.65110357     0.00000000
 C      3   1   2     2.089566556327    36.74033397    60.26063611
 H      1   2   4     2.086303081809   103.26355878   206.01422625
 Si     2   1   3     2.865922754543    36.00953826   245.85043630
 H      6   2   1     2.935646829917   103.70381678   115.06980497
 Li     7   6   2     3.673106318094   110.79629298   235.24261074

---------------------
BASIS SET INFORMATION
---------------------
There are 4 groups of distinct atoms

 Group   1 Type C   : 12s6p3d1f contracted to 6s3p3d1f pattern {621111/411/111/1}
 Group   2 Type H   : 5s3p1d contracted to 3s3p1d pattern {311/111/1}
 Group   3 Type Si  : 15s9p4d1f contracted to 6s5p4d1f pattern {732111/51111/1111/1}
 Group   4 Type Li  : 11s4p1d contracted to 5s4p1d pattern {62111/1111/1}

Atom   0C    basis set group =>   1
Atom   1H    basis set group =>   2
Atom   2H    basis set group =>   2
Atom   3C    basis set group =>   1
Atom   4H    basis set group =>   2
Atom   5Si   basis set group =>   3
Atom   6H    basis set group =>   2
Atom   7Li   basis set group =>   4
---------------------------------
AUXILIARY/J BASIS SET INFORMATION
---------------------------------
There are 4 groups of distinct atoms

 Group   1 Type C   : 12s5p4d2f1g contracted to 6s4p3d1f1g pattern {711111/2111/211/2/1}
 Group   2 Type H   : 5s2p1d contracted to 3s1p1d pattern {311/2/1}
 Group   3 Type Si  : 14s5p5d2f1g contracted to 8s4p3d1f1g pattern {71111111/2111/311/2/1}
 Group   4 Type Li  : 12s5p4d2f1g contracted to 6s4p3d1f1g pattern {711111/2111/211/2/1}

Atom   0C    basis set group =>   1
Atom   1H    basis set group =>   2
Atom   2H    basis set group =>   2
Atom   3C    basis set group =>   1
Atom   4H    basis set group =>   2
Atom   5Si   basis set group =>   3
Atom   6H    basis set group =>   2
Atom   7Li   basis set group =>   4


           ************************************************************
           *        Program running with 24 parallel MPI-processes    *
           *              working on a common directory               *
           ************************************************************
------------------------------------------------------------------------------
                           ORCA GTO INTEGRAL CALCULATION
                           -- RI-GTO INTEGRALS CHOSEN --
------------------------------------------------------------------------------

                         BASIS SET STATISTICS AND STARTUP INFO

Gaussian basis set:
 # of primitive gaussian shells          ...  125
 # of primitive gaussian functions       ...  277
 # of contracted shells                  ...   80
 # of contracted basis functions         ...  212
 Highest angular momentum                ...    3
 Maximum contraction depth               ...    7
Auxiliary gaussian basis set:
 # of primitive gaussian shells          ...  131
 # of primitive gaussian functions       ...  351
 # of contracted shells                  ...   82
 # of contracted aux-basis functions     ...  242
 Highest angular momentum                ...    4
 Maximum contraction depth               ...    7
Ratio of auxiliary to basis functions    ...  1.14
Integral package used                  ... LIBINT
 One Electron integrals                  ... done
 Ordering auxiliary basis shells         ... done
 Integral threshhold             Thresh  ...  1.000e-10
 Primitive cut-off               TCut    ...  1.000e-11
 Pre-screening matrix                    ... done
 Shell pair data                         ... 
 Ordering of the shell pairs             ... done (   0.000 sec) 3134 of 3240 pairs
 Determination of significant pairs      ... done (   0.000 sec)
 Creation of shell pair data             ... done (   0.000 sec)
 Storage of shell pair data              ... done (   0.038 sec)
 Shell pair data done in (   0.039 sec)
 Computing two index integrals           ... done
 Cholesky decomposition of the V-matrix  ... done


Timings:
 Total evaluation time                   ...   0.185 sec (  0.003 min)
 One electron matrix time                ...   0.020 sec (  0.000 min) = 10.9%
 Schwartz matrix evaluation time         ...   0.098 sec (  0.002 min) = 53.2%
 Two index repulsion integral time       ...   0.002 sec (  0.000 min) =  1.0%
 Cholesky decomposition of V             ...   0.002 sec (  0.000 min) =  0.8%
 Three index repulsion integral time     ...   0.000 sec (  0.000 min) =  0.0%



           ************************************************************
           *        Program running with 24 parallel MPI-processes    *
           *              working on a common directory               *
           ************************************************************
-------------------------------------------------------------------------------
                                 ORCA SCF
-------------------------------------------------------------------------------

------------
SCF SETTINGS
------------
Hamiltonian:
 Density Functional     Method          .... DFT(GTOs)
 Exchange Functional    Exchange        .... TPSS
 Correlation Functional Correlation     .... TPSS
 LDA part of GGA corr.  LDAOpt          .... PW91-LDA
 Gradients option       PostSCFGGA      .... off
   Density functional embedding theory  .... OFF
   NL short-range parameter             ....  5.000000
 RI-approximation to the Coulomb term is turned on
   Number of auxiliary basis functions  .... 242


General Settings:
 Integral files         IntName         .... 104
 Hartree-Fock type      HFTyp           .... UHF
 Total Charge           Charge          ....    0
 Multiplicity           Mult            ....    2
 Number of Electrons    NEL             ....   33
 Basis Dimension        Dim             ....  212
 Nuclear Repulsion      ENuc            ....    100.1175538757 Eh

Convergence Acceleration:
 DIIS                   CNVDIIS         .... on
   Start iteration      DIISMaxIt       ....    12
   Startup error        DIISStart       ....  0.200000
   # of expansion vecs  DIISMaxEq       ....     5
   Bias factor          DIISBfac        ....   1.050
   Max. coefficient     DIISMaxC        ....  10.000
 Newton-Raphson         CNVNR           .... off
 SOSCF                  CNVSOSCF        .... off
 Level Shifting         CNVShift        .... on
   Level shift para.    LevelShift      ....    0.2500
   Turn off err/grad.   ShiftErr        ....    0.0010
 Zerner damping         CNVZerner       .... off
 Static damping         CNVDamp         .... on
   Fraction old density DampFac         ....    0.7000
   Max. Damping (<1)    DampMax         ....    0.9800
   Min. Damping (>=0)   DampMin         ....    0.0000
   Turn off err/grad.   DampErr         ....    0.1000
 Fernandez-Rico         CNVRico         .... off

SCF Procedure:
 Maximum # iterations   MaxIter         ....   125
 SCF integral mode      SCFMode         .... Direct
   Integral package                     .... LIBINT
 Reset frequency        DirectResetFreq ....    20
 Integral Threshold     Thresh          ....  1.000e-10 Eh
 Primitive CutOff       TCut            ....  1.000e-11 Eh

Convergence Tolerance:
 Convergence Check Mode ConvCheckMode   .... Total+1el-Energy
 Convergence forced     ConvForced      .... 0
 Energy Change          TolE            ....  1.000e-06 Eh
 1-El. energy change                    ....  1.000e-03 Eh
 DIIS Error             TolErr          ....  1.000e-06


Diagonalization of the overlap matrix:
Smallest eigenvalue                        ... 8.995e-06
Time for diagonalization                   ...    0.010 sec
Threshold for overlap eigenvalues          ... 1.000e-08
Number of eigenvalues below threshold      ... 0
Time for construction of square roots      ...    0.006 sec
Total time needed                          ...    0.016 sec

-------------------
DFT GRID GENERATION
-------------------

General Integration Accuracy     IntAcc      ...  4.670
Radial Grid Type                 RadialGrid  ... Gauss-Chebyshev
Angular Grid (max. acc.)         AngularGrid ... Lebedev-302
Angular grid pruning method      GridPruning ... 3 (G Style)
Weight generation scheme         WeightScheme... Becke
Basis function cutoff            BFCut       ...    1.0000e-10
Integration weight cutoff        WCut        ...    1.0000e-14
Grids for H and He will be reduced by one unit

# of grid points (after initial pruning)     ...  38614 (   0.0 sec)
# of grid points (after weights+screening)   ...  36710 (   0.0 sec)
nearest neighbour list constructed           ...    0.0 sec
Grid point re-assignment to atoms done       ...    0.0 sec
Grid point division into batches done        ...    0.1 sec
Reduced shell lists constructed in    0.1 sec

Total number of grid points                  ...    36710
Total number of batches                      ...      577
Average number of points per batch           ...       63
Average number of grid points per atom       ...     4589
Average number of shells per batch           ...    65.00 (81.25%)
Average number of basis functions per batch  ...   179.77 (84.80%)
Average number of large shells per batch     ...    56.92 (87.57%)
Average number of large basis fcns per batch ...   159.00 (88.45%)
Maximum spatial batch extension              ...   3.68,  3.55, 17.08 au
Average spatial batch extension              ...   0.08,  0.08,  0.11 au

Time for grid setup =    0.200 sec

------------------------------
INITIAL GUESS: MODEL POTENTIAL
------------------------------
Loading Hartree-Fock densities                     ... done
Calculating cut-offs                               ... done
Setting up the integral package                    ... done
Initializing the effective Hamiltonian             ... done
Starting the Coulomb interaction                   ... done (   0.0 sec)
Reading the grid                                   ... done
Mapping shells                                     ... done
Starting the XC term evaluation                    ... done (   0.0 sec)
  promolecular density results
     # of electrons  =     32.998045738
     EX              =    -33.300058507
     EC              =     -1.072305799
     EX+EC           =    -34.372364306
Transforming the Hamiltonian                       ... done (   0.0 sec)
Diagonalizing the Hamiltonian                      ... done (   0.0 sec)
Back transforming the eigenvectors                 ... done (   0.0 sec)
Now organizing SCF variables                       ... done
                      ------------------
                      INITIAL GUESS DONE (   0.3 sec)
                      ------------------
--------------
SCF ITERATIONS
--------------
ITER       Energy         Delta-E        Max-DP      RMS-DP      [F,P]     Damp
               ***  Starting incremental Fock matrix formation  ***
  0   -375.4066284897   0.000000000000 0.03671667  0.00083200  0.2331977 0.7000
  1   -375.5234302740  -0.116801784243 0.02809070  0.00067551  0.0914685 0.7000
                               ***Turning on DIIS***
  2   -375.5527834375  -0.029353163488 0.05121362  0.00124684  0.0241182 0.0000
  3   -375.5914995281  -0.038716090637 0.02257287  0.00046147  0.0832892 0.0000
  4   -375.6168436865  -0.025344158392 0.01274263  0.00028304  0.0230458 0.0000
  5   -375.6206913094  -0.003847622885 0.00678501  0.00015245  0.0104778 0.0000
  6   -375.6215121056  -0.000820796280 0.00340027  0.00007975  0.0046916 0.0000
  7   -375.6217600600  -0.000247954331 0.00251907  0.00005678  0.0013377 0.0000
  8   -375.6218503128  -0.000090252812 0.00147412  0.00003386  0.0010453 0.0000
  9   -375.6218937087  -0.000043395872 0.00224502  0.00006160  0.0008086 0.0000
 10   -375.6219401234  -0.000046414730 0.00079198  0.00001463  0.0008495 0.0000
 11   -375.6219449106  -0.000004787177 0.00031603  0.00000697  0.0001539 0.0000
 12   -375.6219454796  -0.000000569042 0.00010650  0.00000240  0.0002431 0.0000
                 **** Energy Check signals convergence ****

               *****************************************************
               *                     SUCCESS                       *
               *           SCF CONVERGED AFTER  13 CYCLES          *
               *****************************************************


----------------
TOTAL SCF ENERGY
----------------

Total Energy       :         -375.62194568 Eh          -10221.19278 eV

Components:
Nuclear Repulsion  :          100.11755388 Eh            2724.33714 eV
Electronic Energy  :         -475.73949955 Eh          -12945.52992 eV
One Electron Energy:         -715.43651613 Eh          -19468.01734 eV
Two Electron Energy:          239.69701658 Eh            6522.48742 eV

Virial components:
Potential Energy   :         -749.99116185 Eh          -20408.29705 eV
Kinetic Energy     :          374.36921617 Eh           10187.10427 eV
Virial Ratio       :            2.00334624


DFT components:
N(Alpha)           :       17.000003721417 electrons
N(Beta)            :       16.000012201363 electrons
N(Total)           :       33.000015922779 electrons
E(X)               :      -34.067992443880 Eh       
E(C)               :       -1.085973392795 Eh       
E(XC)              :      -35.153965836675 Eh       
DFET-embed. en.    :        0.000000000000 Eh       

---------------
SCF CONVERGENCE
---------------

  Last Energy change         ...   -1.9771e-07  Tolerance :   1.0000e-06
  Last MAX-Density change    ...    5.2686e-05  Tolerance :   1.0000e-05
  Last RMS-Density change    ...    1.2248e-06  Tolerance :   1.0000e-06
  Last DIIS Error            ...    8.0014e-05  Tolerance :   1.0000e-06

             **** THE GBW FILE WAS UPDATED (104.gbw) ****
             **** DENSITY FILE WAS UPDATED (104.scfp) ****
             **** ENERGY FILE WAS UPDATED (104.en.tmp) ****
----------------------
UHF SPIN CONTAMINATION
----------------------

Warning: in a DFT calculation there is little theoretical justification to 
         calculate <S**2> as in Hartree-Fock theory. We will do it anyways
         but you should keep in mind that the values have only limited relevance

Expectation value of <S**2>     :     0.757242
Ideal value S*(S+1) for S=0.5   :     0.750000
Deviation                       :     0.007242

             **** THE GBW FILE WAS UPDATED (104.gbw) ****
             **** DENSITY FILE WAS UPDATED (104.scfp) ****
----------------
ORBITAL ENERGIES
----------------
                 SPIN UP ORBITALS
  NO   OCC          E(Eh)            E(eV) 
   0   1.0000     -65.665022     -1786.8361 
   1   1.0000      -9.963531      -271.1215 
   2   1.0000      -9.941041      -270.5095 
   3   1.0000      -5.100374      -138.7882 
   4   1.0000      -3.478065       -94.6430 
   5   1.0000      -3.474633       -94.5496 
   6   1.0000      -3.471270       -94.4581 
   7   1.0000      -1.898294       -51.6552 
   8   1.0000      -0.660719       -17.9791 
   9   1.0000      -0.494237       -13.4489 
  10   1.0000      -0.438287       -11.9264 
  11   1.0000      -0.369119       -10.0443 
  12   1.0000      -0.314554        -8.5594 
  13   1.0000      -0.280737        -7.6392 
  14   1.0000      -0.235582        -6.4105 
  15   1.0000      -0.184124        -5.0103 
  16   1.0000      -0.159533        -4.3411 
  17   0.0000      -0.049191        -1.3386 
  18   0.0000      -0.027919        -0.7597 
  19   0.0000      -0.003673        -0.0999 
  20   0.0000       0.001883         0.0512 
  21   0.0000       0.002997         0.0815 
  22   0.0000       0.018452         0.5021 
  23   0.0000       0.032127         0.8742 
  24   0.0000       0.039091         1.0637 
  25   0.0000       0.046107         1.2546 
  26   0.0000       0.058531         1.5927 
  27   0.0000       0.067695         1.8421 
  28   0.0000       0.080072         2.1789 
  29   0.0000       0.090170         2.4537 
  30   0.0000       0.096934         2.6377 
  31   0.0000       0.102164         2.7800 
  32   0.0000       0.108817         2.9611 
  33   0.0000       0.123514         3.3610 
  34   0.0000       0.134038         3.6474 
  35   0.0000       0.141047         3.8381 
  36   0.0000       0.161518         4.3951 
  37   0.0000       0.165529         4.5043 
  38   0.0000       0.171531         4.6676 
  39   0.0000       0.182603         4.9689 
  40   0.0000       0.184059         5.0085 
  41   0.0000       0.201793         5.4911 
  42   0.0000       0.209039         5.6883 
  43   0.0000       0.220484         5.9997 
  44   0.0000       0.233927         6.3655 
  45   0.0000       0.248278         6.7560 
  46   0.0000       0.250113         6.8059 
  47   0.0000       0.254089         6.9141 
  48   0.0000       0.264406         7.1949 
  49   0.0000       0.275398         7.4940 
  50   0.0000       0.286891         7.8067 
  51   0.0000       0.299321         8.1449 
  52   0.0000       0.303505         8.2588 
  53   0.0000       0.310503         8.4492 
  54   0.0000       0.314292         8.5523 
  55   0.0000       0.329674         8.9709 
  56   0.0000       0.334320         9.0973 
  57   0.0000       0.343231         9.3398 
  58   0.0000       0.353319         9.6143 
  59   0.0000       0.368584        10.0297 
  60   0.0000       0.385730        10.4963 
  61   0.0000       0.393737        10.7141 
  62   0.0000       0.399846        10.8804 
  63   0.0000       0.416928        11.3452 
  64   0.0000       0.421891        11.4802 
  65   0.0000       0.437836        11.9141 
  66   0.0000       0.452287        12.3073 
  67   0.0000       0.455504        12.3949 
  68   0.0000       0.482101        13.1186 
  69   0.0000       0.484051        13.1717 
  70   0.0000       0.496055        13.4983 
  71   0.0000       0.499974        13.6050 
  72   0.0000       0.518125        14.0989 
  73   0.0000       0.528630        14.3848 
  74   0.0000       0.537039        14.6136 
  75   0.0000       0.555830        15.1249 
  76   0.0000       0.572161        15.5693 
  77   0.0000       0.595335        16.1999 
  78   0.0000       0.606798        16.5118 
  79   0.0000       0.609923        16.5969 
  80   0.0000       0.624057        16.9814 
  81   0.0000       0.638824        17.3833 
  82   0.0000       0.654657        17.8141 
  83   0.0000       0.679481        18.4896 
  84   0.0000       0.698650        19.0112 
  85   0.0000       0.727032        19.7835 
  86   0.0000       0.736658        20.0455 
  87   0.0000       0.752553        20.4780 
  88   0.0000       0.767219        20.8771 
  89   0.0000       0.781702        21.2712 
  90   0.0000       0.800076        21.7712 
  91   0.0000       0.833612        22.6837 
  92   0.0000       0.845206        22.9992 
  93   0.0000       0.872994        23.7554 
  94   0.0000       0.884257        24.0618 
  95   0.0000       0.945361        25.7246 
  96   0.0000       0.956248        26.0208 
  97   0.0000       0.969174        26.3726 
  98   0.0000       0.985370        26.8133 
  99   0.0000       1.006770        27.3956 
 100   0.0000       1.030907        28.0524 
 101   0.0000       1.055190        28.7132 
 102   0.0000       1.084770        29.5181 
 103   0.0000       1.094172        29.7739 
 104   0.0000       1.109296        30.1855 
 105   0.0000       1.132562        30.8186 
 106   0.0000       1.161008        31.5926 
 107   0.0000       1.188244        32.3338 
 108   0.0000       1.229205        33.4484 
 109   0.0000       1.280452        34.8429 
 110   0.0000       1.287676        35.0394 
 111   0.0000       1.303254        35.4633 
 112   0.0000       1.337864        36.4051 
 113   0.0000       1.358331        36.9621 
 114   0.0000       1.381622        37.5958 
 115   0.0000       1.406795        38.2808 
 116   0.0000       1.415972        38.5306 
 117   0.0000       1.447872        39.3986 
 118   0.0000       1.480602        40.2892 
 119   0.0000       1.501118        40.8475 
 120   0.0000       1.512832        41.1663 
 121   0.0000       1.527022        41.5524 
 122   0.0000       1.599177        43.5158 
 123   0.0000       1.653583        44.9963 
 124   0.0000       1.661355        45.2078 
 125   0.0000       1.699667        46.2503 
 126   0.0000       1.750910        47.6447 
 127   0.0000       1.767122        48.0858 
 128   0.0000       1.820847        49.5478 
 129   0.0000       1.841516        50.1102 
 130   0.0000       1.848318        50.2953 
 131   0.0000       1.878376        51.1132 
 132   0.0000       2.004788        54.5530 
 133   0.0000       2.081038        56.6279 
 134   0.0000       2.133390        58.0525 
 135   0.0000       2.260561        61.5130 
 136   0.0000       2.301121        62.6167 
 137   0.0000       2.599391        70.7330 
 138   0.0000       2.672398        72.7197 
 139   0.0000       2.742861        74.6370 
 140   0.0000       2.809015        76.4372 
 141   0.0000       2.831375        77.0456 
 142   0.0000       2.871746        78.1442 
 143   0.0000       2.890087        78.6433 
 144   0.0000       2.940903        80.0260 
 145   0.0000       2.956286        80.4446 
 146   0.0000       2.984051        81.2002 
 147   0.0000       2.998856        81.6030 
 148   0.0000       3.066171        83.4347 
 149   0.0000       3.120778        84.9207 
 150   0.0000       3.160887        86.0121 
 151   0.0000       3.228808        87.8603 
 152   0.0000       3.272239        89.0421 
 153   0.0000       3.298905        89.7678 
 154   0.0000       3.334160        90.7271 
 155   0.0000       3.343937        90.9931 
 156   0.0000       3.354763        91.2877 
 157   0.0000       3.371280        91.7372 
 158   0.0000       3.391881        92.2978 
 159   0.0000       3.431498        93.3758 
 160   0.0000       3.455492        94.0287 
 161   0.0000       3.503053        95.3229 
 162   0.0000       3.537045        96.2479 
 163   0.0000       3.579073        97.3915 
 164   0.0000       3.635806        98.9353 
 165   0.0000       3.650056        99.3231 
 166   0.0000       3.681302       100.1733 
 167   0.0000       3.710896       100.9786 
 168   0.0000       3.750639       102.0601 
 169   0.0000       3.769744       102.5800 
 170   0.0000       3.790048       103.1325 
 171   0.0000       3.845849       104.6509 
 172   0.0000       3.861747       105.0835 
 173   0.0000       3.917525       106.6013 
 174   0.0000       3.990721       108.5930 
 175   0.0000       4.033978       109.7701 
 176   0.0000       4.057289       110.4045 
 177   0.0000       4.126148       112.2782 
 178   0.0000       4.137839       112.5963 
 179   0.0000       4.159502       113.1858 
 180   0.0000       4.169069       113.4461 
 181   0.0000       4.229101       115.0797 
 182   0.0000       4.271254       116.2267 
 183   0.0000       4.329464       117.8107 
 184   0.0000       4.421672       120.3198 
 185   0.0000       4.492924       122.2587 
 186   0.0000       4.560166       124.0884 
 187   0.0000       4.582798       124.7043 
 188   0.0000       4.613892       125.5504 
 189   0.0000       4.636021       126.1526 
 190   0.0000       4.678702       127.3139 
 191   0.0000       4.772288       129.8606 
 192   0.0000       4.827830       131.3719 
 193   0.0000       4.956410       134.8708 
 194   0.0000       5.000385       136.0674 
 195   0.0000       5.047976       137.3624 
 196   0.0000       5.124149       139.4352 
 197   0.0000       5.260455       143.1443 
 198   0.0000       5.322932       144.8443 
 199   0.0000       5.423891       147.5916 
 200   0.0000       5.516599       150.1143 
 201   0.0000       5.757205       156.6615 
 202   0.0000       5.837594       158.8490 
 203   0.0000       6.028720       164.0498 
 204   0.0000       6.086850       165.6316 
 205   0.0000       6.268423       170.5725 
 206   0.0000       6.698727       182.2816 
 207   0.0000       6.789195       184.7434 
 208   0.0000      11.693613       318.1994 
 209   0.0000      14.793577       402.5537 
 210   0.0000      22.536101       613.2385 
 211   0.0000      23.026652       626.5871 

                 SPIN DOWN ORBITALS
  NO   OCC          E(Eh)            E(eV) 
   0   1.0000     -65.662424     -1786.7654 
   1   1.0000      -9.962810      -271.1018 
   2   1.0000      -9.938414      -270.4380 
   3   1.0000      -5.097752      -138.7169 
   4   1.0000      -3.473330       -94.5141 
   5   1.0000      -3.470709       -94.4428 
   6   1.0000      -3.469458       -94.4088 
   7   1.0000      -1.898279       -51.6548 
   8   1.0000      -0.656375       -17.8609 
   9   1.0000      -0.484571       -13.1859 
  10   1.0000      -0.431352       -11.7377 
  11   1.0000      -0.364323        -9.9137 
  12   1.0000      -0.309228        -8.4145 
  13   1.0000      -0.275350        -7.4926 
  14   1.0000      -0.223231        -6.0744 
  15   1.0000      -0.172422        -4.6919 
  16   0.0000      -0.106480        -2.8975 
  17   0.0000      -0.047681        -1.2975 
  18   0.0000      -0.023735        -0.6459 
  19   0.0000       0.001710         0.0465 
  20   0.0000       0.009122         0.2482 
  21   0.0000       0.013067         0.3556 
  22   0.0000       0.024844         0.6760 
  23   0.0000       0.040865         1.1120 
  24   0.0000       0.043859         1.1935 
  25   0.0000       0.048043         1.3073 
  26   0.0000       0.064443         1.7536 
  27   0.0000       0.070981         1.9315 
  28   0.0000       0.084743         2.3060 
  29   0.0000       0.097893         2.6638 
  30   0.0000       0.102221         2.7816 
  31   0.0000       0.111087         3.0228 
  32   0.0000       0.117005         3.1839 
  33   0.0000       0.130060         3.5391 
  34   0.0000       0.138798         3.7769 
  35   0.0000       0.149840         4.0773 
  36   0.0000       0.167234         4.5507 
  37   0.0000       0.172271         4.6877 
  38   0.0000       0.176566         4.8046 
  39   0.0000       0.185722         5.0538 
  40   0.0000       0.190529         5.1846 
  41   0.0000       0.207270         5.6401 
  42   0.0000       0.213025         5.7967 
  43   0.0000       0.227261         6.1841 
  44   0.0000       0.239010         6.5038 
  45   0.0000       0.254131         6.9152 
  46   0.0000       0.257691         7.0121 
  47   0.0000       0.260624         7.0919 
  48   0.0000       0.269548         7.3348 
  49   0.0000       0.283090         7.7033 
  50   0.0000       0.291312         7.9270 
  51   0.0000       0.302628         8.2349 
  52   0.0000       0.308809         8.4031 
  53   0.0000       0.314741         8.5645 
  54   0.0000       0.319229         8.6867 
  55   0.0000       0.333851         9.0845 
  56   0.0000       0.339689         9.2434 
  57   0.0000       0.346857         9.4385 
  58   0.0000       0.358631         9.7589 
  59   0.0000       0.372472        10.1355 
  60   0.0000       0.391398        10.6505 
  61   0.0000       0.396224        10.7818 
  62   0.0000       0.406543        11.0626 
  63   0.0000       0.424827        11.5601 
  64   0.0000       0.427101        11.6220 
  65   0.0000       0.442143        12.0313 
  66   0.0000       0.460002        12.5173 
  67   0.0000       0.466469        12.6933 
  68   0.0000       0.487578        13.2677 
  69   0.0000       0.489698        13.3254 
  70   0.0000       0.502218        13.6660 
  71   0.0000       0.506017        13.7694 
  72   0.0000       0.524364        14.2687 
  73   0.0000       0.536942        14.6109 
  74   0.0000       0.542730        14.7684 
  75   0.0000       0.558350        15.1935 
  76   0.0000       0.579775        15.7765 
  77   0.0000       0.599271        16.3070 
  78   0.0000       0.616187        16.7673 
  79   0.0000       0.618634        16.8339 
  80   0.0000       0.630861        17.1666 
  81   0.0000       0.647157        17.6100 
  82   0.0000       0.657972        17.9043 
  83   0.0000       0.684184        18.6176 
  84   0.0000       0.701835        19.0979 
  85   0.0000       0.729525        19.8514 
  86   0.0000       0.740173        20.1411 
  87   0.0000       0.755481        20.5577 
  88   0.0000       0.773947        21.0602 
  89   0.0000       0.785476        21.3739 
  90   0.0000       0.805863        21.9287 
  91   0.0000       0.839066        22.8322 
  92   0.0000       0.853954        23.2373 
  93   0.0000       0.884264        24.0620 
  94   0.0000       0.890419        24.2295 
  95   0.0000       0.954797        25.9814 
  96   0.0000       0.966574        26.3018 
  97   0.0000       0.976786        26.5797 
  98   0.0000       0.995801        27.0971 
  99   0.0000       1.019118        27.7316 
 100   0.0000       1.040460        28.3124 
 101   0.0000       1.066986        29.0342 
 102   0.0000       1.098474        29.8910 
 103   0.0000       1.104018        30.0419 
 104   0.0000       1.121207        30.5096 
 105   0.0000       1.139218        30.9997 
 106   0.0000       1.172777        31.9129 
 107   0.0000       1.201119        32.6841 
 108   0.0000       1.237096        33.6631 
 109   0.0000       1.286520        35.0080 
 110   0.0000       1.303739        35.4765 
 111   0.0000       1.313466        35.7412 
 112   0.0000       1.344865        36.5956 
 113   0.0000       1.370931        37.3049 
 114   0.0000       1.390983        37.8506 
 115   0.0000       1.417495        38.5720 
 116   0.0000       1.426226        38.8096 
 117   0.0000       1.462576        39.7987 
 118   0.0000       1.494780        40.6750 
 119   0.0000       1.511069        41.1183 
 120   0.0000       1.523474        41.4558 
 121   0.0000       1.533616        41.7318 
 122   0.0000       1.613293        43.8999 
 123   0.0000       1.663688        45.2713 
 124   0.0000       1.672340        45.5067 
 125   0.0000       1.707958        46.4759 
 126   0.0000       1.757720        47.8300 
 127   0.0000       1.778782        48.4031 
 128   0.0000       1.826848        49.7111 
 129   0.0000       1.850486        50.3543 
 130   0.0000       1.854300        50.4581 
 131   0.0000       1.885368        51.3035 
 132   0.0000       2.009418        54.6790 
 133   0.0000       2.085782        56.7570 
 134   0.0000       2.138566        58.1933 
 135   0.0000       2.266559        61.6762 
 136   0.0000       2.307226        62.7828 
 137   0.0000       2.606759        70.9335 
 138   0.0000       2.680332        72.9355 
 139   0.0000       2.750024        74.8320 
 140   0.0000       2.816400        76.6381 
 141   0.0000       2.841033        77.3084 
 142   0.0000       2.885014        78.5052 
 143   0.0000       2.902876        78.9913 
 144   0.0000       2.949475        80.2593 
 145   0.0000       2.966034        80.7099 
 146   0.0000       2.991098        81.3919 
 147   0.0000       3.014866        82.0387 
 148   0.0000       3.071870        83.5898 
 149   0.0000       3.129351        85.1540 
 150   0.0000       3.170180        86.2650 
 151   0.0000       3.236828        88.0786 
 152   0.0000       3.278009        89.1992 
 153   0.0000       3.310218        90.0756 
 154   0.0000       3.341302        90.9215 
 155   0.0000       3.355635        91.3115 
 156   0.0000       3.365570        91.5818 
 157   0.0000       3.383495        92.0696 
 158   0.0000       3.397426        92.4487 
 159   0.0000       3.440322        93.6159 
 160   0.0000       3.464110        94.2632 
 161   0.0000       3.512403        95.5774 
 162   0.0000       3.547391        96.5294 
 163   0.0000       3.591030        97.7169 
 164   0.0000       3.661844        99.6439 
 165   0.0000       3.670396        99.8765 
 166   0.0000       3.721237       101.2600 
 167   0.0000       3.736838       101.6845 
 168   0.0000       3.762351       102.3788 
 169   0.0000       3.794081       103.2422 
 170   0.0000       3.810570       103.6909 
 171   0.0000       3.868887       105.2778 
 172   0.0000       3.885400       105.7271 
 173   0.0000       3.938940       107.1840 
 174   0.0000       3.997475       108.7768 
 175   0.0000       4.041035       109.9622 
 176   0.0000       4.069435       110.7349 
 177   0.0000       4.140978       112.6817 
 178   0.0000       4.141649       112.7000 
 179   0.0000       4.170845       113.4945 
 180   0.0000       4.180764       113.7644 
 181   0.0000       4.245664       115.5304 
 182   0.0000       4.276036       116.3568 
 183   0.0000       4.335686       117.9800 
 184   0.0000       4.429900       120.5437 
 185   0.0000       4.512126       122.7812 
 186   0.0000       4.577164       124.5510 
 187   0.0000       4.596589       125.0796 
 188   0.0000       4.631413       126.0272 
 189   0.0000       4.650001       126.5330 
 190   0.0000       4.699250       127.8731 
 191   0.0000       4.780468       130.0831 
 192   0.0000       4.837674       131.6398 
 193   0.0000       4.963868       135.0737 
 194   0.0000       5.008760       136.2953 
 195   0.0000       5.056102       137.5835 
 196   0.0000       5.137581       139.8007 
 197   0.0000       5.271420       143.4426 
 198   0.0000       5.339935       145.3070 
 199   0.0000       5.434646       147.8842 
 200   0.0000       5.522378       150.2715 
 201   0.0000       5.766382       156.9112 
 202   0.0000       5.837586       158.8488 
 203   0.0000       6.029221       164.0634 
 204   0.0000       6.087156       165.6399 
 205   0.0000       6.283980       170.9958 
 206   0.0000       6.715509       182.7383 
 207   0.0000       6.811369       185.3468 
 208   0.0000      11.705945       318.5350 
 209   0.0000      14.793490       402.5513 
 210   0.0000      22.539563       613.3327 
 211   0.0000      23.029141       626.6548 

                    ********************************
                    * MULLIKEN POPULATION ANALYSIS *
                    ********************************

--------------------------------------------
MULLIKEN ATOMIC CHARGES AND SPIN POPULATIONS
--------------------------------------------
   0 C :    0.052391   -0.008873
   1 H :   -0.070688    0.042312
   2 H :   -0.001619   -0.003158
   3 C :   -0.809411    0.199608
   4 H :    0.156046    0.005884
   5 Si:    0.163726    0.746597
   6 H :   -0.267047    0.018168
   7 Li:    0.776601   -0.000538
Sum of atomic charges         :    0.0000000
Sum of atomic spin populations:    1.0000000

-----------------------------------------------------
MULLIKEN REDUCED ORBITAL CHARGES AND SPIN POPULATIONS
-----------------------------------------------------
CHARGE
  0 C s       :     3.177584  s :     3.177584
      pz      :     0.962463  p :     2.707588
      px      :     0.941639
      py      :     0.803487
      dz2     :    -0.004666  d :     0.057732
      dxz     :     0.013851
      dyz     :    -0.006488
      dx2y2   :     0.008480
      dxy     :     0.046556
      f0      :     0.000921  f :     0.004705
      f+1     :     0.000334
      f-1     :     0.000528
      f+2     :     0.000184
      f-2     :     0.000374
      f+3     :     0.001510
      f-3     :     0.000854
  1 H s       :     1.035829  s :     1.035829
      pz      :     0.018675  p :     0.034180
      px      :     0.010796
      py      :     0.004710
      dz2     :     0.000176  d :     0.000679
      dxz     :     0.000278
      dyz     :     0.000071
      dx2y2   :     0.000080
      dxy     :     0.000074
  2 H s       :     0.824995  s :     0.824995
      pz      :     0.048064  p :     0.175028
      px      :     0.034471
      py      :     0.092493
      dz2     :     0.000039  d :     0.001596
      dxz     :     0.000376
      dyz     :     0.000074
      dx2y2   :     0.000691
      dxy     :     0.000417
  3 C s       :     3.473374  s :     3.473374
      pz      :     0.758886  p :     3.228806
      px      :     0.990041
      py      :     1.479879
      dz2     :     0.009188  d :     0.103188
      dxz     :     0.034210
      dyz     :    -0.005483
      dx2y2   :     0.027554
      dxy     :     0.037719
      f0      :     0.000661  f :     0.004042
      f+1     :     0.000243
      f-1     :     0.000193
      f+2     :     0.000174
      f-2     :     0.000505
      f+3     :     0.001317
      f-3     :     0.000949
  4 H s       :     0.819883  s :     0.819883
      pz      :    -0.000615  p :     0.022707
      px      :     0.005787
      py      :     0.017535
      dz2     :     0.000049  d :     0.001364
      dxz     :     0.000012
      dyz     :     0.000379
      dx2y2   :     0.000198
      dxy     :     0.000726
  5 Sis       :     5.372344  s :     5.372344
      pz      :     2.844357  p :     8.161840
      px      :     2.707899
      py      :     2.609585
      dz2     :     0.035432  d :     0.279900
      dxz     :     0.108857
      dyz     :     0.010665
      dx2y2   :     0.078309
      dxy     :     0.046637
      f0      :     0.002546  f :     0.022190
      f+1     :     0.003116
      f-1     :     0.002597
      f+2     :     0.001933
      f-2     :     0.002165
      f+3     :     0.005991
      f-3     :     0.003841
  6 H s       :     1.215210  s :     1.215210
      pz      :     0.016580  p :     0.051198
      px      :     0.013414
      py      :     0.021204
      dz2     :     0.000159  d :     0.000639
      dxz     :     0.000019
      dyz     :     0.000110
      dx2y2   :     0.000155
      dxy     :     0.000197
  7 Lis       :     2.064238  s :     2.064238
      pz      :     0.020672  p :     0.131695
      px      :     0.055852
      py      :     0.055171
      dz2     :     0.005087  d :     0.027465
      dxz     :     0.001847
      dyz     :     0.004087
      dx2y2   :     0.010963
      dxy     :     0.005482

SPIN
  0 C s       :    -0.007380  s :    -0.007380
      pz      :    -0.022165  p :    -0.011409
      px      :     0.017637
      py      :    -0.006880
      dz2     :     0.000862  d :     0.009549
      dxz     :     0.006257
      dyz     :     0.001650
      dx2y2   :    -0.001744
      dxy     :     0.002525
      f0      :     0.000039  f :     0.000366
      f+1     :     0.000012
      f-1     :     0.000011
      f+2     :     0.000016
      f-2     :     0.000156
      f+3     :     0.000111
      f-3     :     0.000021
  1 H s       :     0.029929  s :     0.029929
      pz      :     0.011158  p :     0.012290
      px      :     0.002043
      py      :    -0.000911
      dz2     :     0.000032  d :     0.000093
      dxz     :     0.000017
      dyz     :     0.000010
      dx2y2   :     0.000024
      dxy     :     0.000009
  2 H s       :    -0.006777  s :    -0.006777
      pz      :     0.002940  p :     0.003521
      px      :     0.000317
      py      :     0.000263
      dz2     :    -0.000001  d :     0.000098
      dxz     :     0.000064
      dyz     :     0.000019
      dx2y2   :     0.000013
      dxy     :     0.000003
  3 C s       :     0.023211  s :     0.023211
      pz      :     0.110090  p :     0.165549
      px      :     0.019799
      py      :     0.035661
      dz2     :     0.000132  d :     0.010989
      dxz     :    -0.003272
      dyz     :     0.000241
      dx2y2   :     0.011921
      dxy     :     0.001966
      f0      :    -0.000087  f :    -0.000141
      f+1     :    -0.000080
      f-1     :    -0.000037
      f+2     :    -0.000004
      f-2     :    -0.000006
      f+3     :     0.000062
      f-3     :     0.000012
  4 H s       :     0.005333  s :     0.005333
      pz      :    -0.000441  p :     0.000531
      px      :     0.001222
      py      :    -0.000249
      dz2     :     0.000001  d :     0.000019
      dxz     :     0.000005
      dyz     :    -0.000001
      dx2y2   :    -0.000003
      dxy     :     0.000018
  5 Sis       :     0.124922  s :     0.124922
      pz      :     0.402053  p :     0.598072
      px      :     0.172904
      py      :     0.023116
      dz2     :    -0.000429  d :     0.024132
      dxz     :     0.023171
      dyz     :     0.000030
      dx2y2   :     0.003465
      dxy     :    -0.002105
      f0      :    -0.000096  f :    -0.000530
      f+1     :    -0.000101
      f-1     :    -0.000501
      f+2     :    -0.000332
      f-2     :     0.000023
      f+3     :     0.000190
      f-3     :     0.000287
  6 H s       :     0.006110  s :     0.006110
      pz      :     0.003635  p :     0.012006
      px      :     0.006285
      py      :     0.002086
      dz2     :    -0.000004  d :     0.000052
      dxz     :     0.000007
      dyz     :     0.000041
      dx2y2   :     0.000010
      dxy     :    -0.000002
  7 Lis       :    -0.006904  s :    -0.006904
      pz      :    -0.000658  p :     0.005205
      px      :     0.003975
      py      :     0.001888
      dz2     :     0.000178  d :     0.001162
      dxz     :     0.001248
      dyz     :     0.000149
      dx2y2   :    -0.000233
      dxy     :    -0.000180


                     *******************************
                     * LOEWDIN POPULATION ANALYSIS *
                     *******************************

-------------------------------------------
LOEWDIN ATOMIC CHARGES AND SPIN POPULATIONS
-------------------------------------------
   0 C :   -0.421191    0.097484
   1 H :   -0.172302    0.074523
   2 H :   -0.124182    0.021741
   3 C :   -0.138171    0.131447
   4 H :   -0.088116    0.002034
   5 Si:    0.706033    0.601727
   6 H :   -0.157043    0.059983
   7 Li:    0.394971    0.011060

----------------------------------------------------
LOEWDIN REDUCED ORBITAL CHARGES AND SPIN POPULATIONS
----------------------------------------------------
CHARGE
  0 C s       :     2.790098  s :     2.790098
      pz      :     0.812947  p :     2.836509
      px      :     1.049499
      py      :     0.974064
      dz2     :     0.065430  d :     0.767735
      dxz     :     0.095676
      dyz     :     0.032932
      dx2y2   :     0.326442
      dxy     :     0.247255
      f0      :     0.001377  f :     0.026848
      f+1     :     0.002537
      f-1     :     0.002916
      f+2     :     0.001297
      f-2     :     0.002116
      f+3     :     0.010374
      f-3     :     0.006230
  1 H s       :     0.937907  s :     0.937907
      pz      :     0.125966  p :     0.229237
      px      :     0.063396
      py      :     0.039875
      dz2     :     0.001845  d :     0.005158
      dxz     :     0.001923
      dyz     :     0.000521
      dx2y2   :     0.000480
      dxy     :     0.000389
  2 H s       :     0.752381  s :     0.752381
      pz      :     0.075569  p :     0.344121
      px      :     0.122744
      py      :     0.145808
      dz2     :     0.002563  d :     0.027680
      dxz     :     0.004276
      dyz     :     0.001742
      dx2y2   :     0.010208
      dxy     :     0.008891
  3 C s       :     2.861048  s :     2.861048
      pz      :     0.645951  p :     2.780843
      px      :     0.988692
      py      :     1.146200
      dz2     :     0.048586  d :     0.468185
      dxz     :     0.062938
      dyz     :     0.008748
      dx2y2   :     0.173319
      dxy     :     0.174594
      f0      :     0.001928  f :     0.028095
      f+1     :     0.003396
      f-1     :     0.001309
      f+2     :     0.000684
      f-2     :     0.003827
      f+3     :     0.009387
      f-3     :     0.007564
  4 H s       :     0.736512  s :     0.736512
      pz      :     0.088724  p :     0.323756
      px      :     0.085036
      py      :     0.149997
      dz2     :     0.002685  d :     0.027847
      dxz     :     0.000056
      dyz     :     0.007615
      dx2y2   :     0.008420
      dxy     :     0.009071
  5 Sis       :     4.688602  s :     4.688602
      pz      :     2.706417  p :     7.955449
      px      :     2.658598
      py      :     2.590434
      dz2     :     0.086854  d :     0.570148
      dxz     :     0.178440
      dyz     :     0.015865
      dx2y2   :     0.176342
      dxy     :     0.112647
      f0      :     0.006608  f :     0.079768
      f+1     :     0.012473
      f-1     :     0.009015
      f+2     :     0.005990
      f-2     :     0.007361
      f+3     :     0.022777
      f-3     :     0.015544
  6 H s       :     0.883695  s :     0.883695
      pz      :     0.066236  p :     0.268442
      px      :     0.080377
      py      :     0.121830
      dz2     :     0.000670  d :     0.004906
      dxz     :     0.000159
      dyz     :     0.001124
      dx2y2   :     0.001488
      dxy     :     0.001464
  7 Lis       :     2.099016  s :     2.099016
      pz      :     0.038122  p :     0.320100
      px      :     0.143119
      py      :     0.138859
      dz2     :     0.029034  d :     0.185913
      dxz     :     0.003220
      dyz     :     0.027352
      dx2y2   :     0.082963
      dxy     :     0.043345

SPIN
  0 C s       :     0.005844  s :     0.005844
      pz      :    -0.006611  p :     0.017012
      px      :     0.018673
      py      :     0.004950
      dz2     :     0.002003  d :     0.072376
      dxz     :     0.056232
      dyz     :     0.004257
      dx2y2   :     0.002972
      dxy     :     0.006912
      f0      :     0.000148  f :     0.002251
      f+1     :     0.000015
      f-1     :     0.000024
      f+2     :     0.000067
      f-2     :     0.001021
      f+3     :     0.000855
      f-3     :     0.000120
  1 H s       :     0.018364  s :     0.018364
      pz      :     0.045601  p :     0.055215
      px      :     0.008342
      py      :     0.001272
      dz2     :     0.000790  d :     0.000945
      dxz     :     0.000002
      dyz     :     0.000014
      dx2y2   :     0.000105
      dxy     :     0.000033
  2 H s       :     0.009191  s :     0.009191
      pz      :     0.007505  p :     0.011364
      px      :     0.001990
      py      :     0.001869
      dz2     :     0.000011  d :     0.001186
      dxz     :     0.000778
      dyz     :     0.000309
      dx2y2   :     0.000025
      dxy     :     0.000062
  3 C s       :     0.007017  s :     0.007017
      pz      :     0.079030  p :     0.110186
      px      :     0.007808
      py      :     0.023348
      dz2     :     0.000729  d :     0.014077
      dxz     :    -0.000737
      dyz     :    -0.000326
      dx2y2   :     0.008305
      dxy     :     0.006106
      f0      :    -0.000188  f :     0.000167
      f+1     :    -0.000082
      f-1     :    -0.000010
      f+2     :    -0.000041
      f-2     :    -0.000022
      f+3     :     0.000468
      f-3     :     0.000042
  4 H s       :     0.001587  s :     0.001587
      pz      :    -0.002315  p :     0.000373
      px      :     0.001594
      py      :     0.001095
      dz2     :     0.000009  d :     0.000074
      dxz     :     0.000007
      dyz     :    -0.000073
      dx2y2   :     0.000011
      dxy     :     0.000119
  5 Sis       :     0.070134  s :     0.070134
      pz      :     0.315553  p :     0.480434
      px      :     0.153707
      py      :     0.011174
      dz2     :     0.001241  d :     0.047767
      dxz     :     0.045152
      dyz     :    -0.000088
      dx2y2   :     0.003261
      dxy     :    -0.001800
      f0      :     0.000316  f :     0.003393
      f+1     :     0.000580
      f-1     :    -0.000453
      f+2     :    -0.000169
      f-2     :     0.000529
      f+3     :     0.000880
      f-3     :     0.001710
  6 H s       :     0.006405  s :     0.006405
      pz      :     0.028526  p :     0.052665
      px      :     0.014883
      py      :     0.009257
      dz2     :    -0.000008  d :     0.000913
      dxz     :     0.000112
      dyz     :     0.000550
      dx2y2   :     0.000024
      dxy     :     0.000235
  7 Lis       :    -0.002752  s :    -0.002752
      pz      :     0.000533  p :     0.008509
      px      :     0.004685
      py      :     0.003292
      dz2     :     0.000331  d :     0.005302
      dxz     :     0.002232
      dyz     :     0.001205
      dx2y2   :     0.001219
      dxy     :     0.000315


                      *****************************
                      * MAYER POPULATION ANALYSIS *
                      *****************************

  NA   - Mulliken gross atomic population
  ZA   - Total nuclear charge
  QA   - Mulliken gross atomic charge
  VA   - Mayer's total valence
  BVA  - Mayer's bonded valence
  FA   - Mayer's free valence

  ATOM       NA         ZA         QA         VA         BVA        FA
  0 C      5.9476     6.0000     0.0524     3.6087     3.6032     0.0055
  1 H      1.0707     1.0000    -0.0707     1.0297     1.0270     0.0026
  2 H      1.0016     1.0000    -0.0016     1.3619     1.3614     0.0005
  3 C      6.8094     6.0000    -0.8094     3.4408     3.4091     0.0317
  4 H      0.8440     1.0000     0.1560     0.9665     0.9665     0.0001
  5 Si    13.8363    14.0000     0.1637     3.8277     3.2541     0.5736
  6 H      1.2670     1.0000    -0.2670     1.0094     1.0077     0.0017
  7 Li     2.2234     3.0000     0.7766     0.4719     0.4718     0.0001

  Mayer bond orders larger than 0.100000
B(  0-C ,  3-C ) :   1.4702 B(  0-C ,  4-H ) :   0.9478 B(  0-C ,  5-Si) :   1.1109 
B(  1-H ,  5-Si) :   0.9661 B(  2-H ,  3-C ) :   1.2332 B(  3-C ,  5-Si) :   0.3011 
B(  3-C ,  6-H ) :   0.1170 B(  3-C ,  7-Li) :   0.2572 B(  5-Si,  6-H ) :   0.7809 
B(  6-H ,  7-Li) :   0.1151 

-------
TIMINGS
-------

Total SCF time: 0 days 0 hours 0 min 3 sec 

Total time                  ....       3.308 sec
Sum of individual times     ....       3.137 sec  ( 94.8%)

Fock matrix formation       ....       2.557 sec  ( 77.3%)
  Split-RI-J                ....       1.090 sec  ( 42.6% of F)
  XC integration            ....       1.380 sec  ( 54.0% of F)
    Basis function eval.    ....       0.080 sec  (  5.8% of XC)
    Density eval.           ....       0.258 sec  ( 18.7% of XC)
    XC-Functional eval.     ....       0.042 sec  (  3.1% of XC)
    XC-Potential eval.      ....       0.571 sec  ( 41.4% of XC)
Diagonalization             ....       0.174 sec  (  5.3%)
Density matrix formation    ....       0.019 sec  (  0.6%)
Population analysis         ....       0.015 sec  (  0.4%)
Initial guess               ....       0.112 sec  (  3.4%)
Orbital Transformation      ....       0.000 sec  (  0.0%)
Orbital Orthonormalization  ....       0.000 sec  (  0.0%)
DIIS solution               ....       0.060 sec  (  1.8%)
Grid generation             ....       0.200 sec  (  6.0%)


-------------------------------------------------------------------------------
                          DFT DISPERSION CORRECTION                            
                                                                               
                              DFTD3 V3.1  Rev 1                                
                          USING Becke-Johnson damping                          
-------------------------------------------------------------------------------
The TPSS functional is recognized
Active option DFTDOPT                   ...         4   

molecular C6(AA) [au] = 1463.301972 


            DFT-D V3
 parameters
 s6 scaling factor         :     1.0000 
 a1 scaling factor         :     0.4535 
 s8 scaling factor         :     1.9435 
 a2 scaling factor         :     4.4752 
 ad hoc parameters k1-k3   :    16.0000     1.3333    -4.0000 

 Edisp/kcal,au: -5.126597642269  -0.008169752501 
 E6   /kcal   :  -2.217462434 
 E8   /kcal   :  -2.909135209 
 % E8         :  56.745924130 

-------------------------   ----------------
Dispersion correction           -0.008169753
-------------------------   ----------------


-------------------------   --------------------
FINAL SINGLE POINT ENERGY      -375.630115429831
-------------------------   --------------------


                            ***************************************
                            *     ORCA property calculations      *
                            ***************************************

                                    ---------------------
                                    Active property flags
                                    ---------------------
   (+) Dipole Moment


------------------------------------------------------------------------------
                       ORCA ELECTRIC PROPERTIES CALCULATION
------------------------------------------------------------------------------

Dipole Moment Calculation                       ... on
Quadrupole Moment Calculation                   ... off
Polarizability Calculation                      ... off
GBWName                                         ... 104.gbw
Electron density file                           ... 104.scfp
The origin for moment calculation is the CENTER OF MASS  = (-0.500057, -0.135647 -0.285939)

-------------
DIPOLE MOMENT
-------------
                                X             Y             Z
Electronic contribution:      1.24124      -4.36095      -1.16986
Nuclear contribution   :     -0.90522       2.81558       1.17165
                        -----------------------------------------
Total Dipole Moment    :      0.33603      -1.54538       0.00179
                        -----------------------------------------
Magnitude (a.u.)       :      1.58149
Magnitude (Debye)      :      4.01982



--------------------
Rotational spectrum 
--------------------
 
Rotational constants in cm-1:     0.419182     0.179284     0.128388 
Rotational constants in MHz : 12566.751634  5374.809128  3848.967152 

 Dipole components along the rotational axes: 
x,y,z [a.u.] :     0.336142     1.545351     0.001791 
x,y,z [Debye]:     0.854405     3.927970     0.004553 

 

Timings for individual modules:

Sum of individual times         ...        4.193 sec (=   0.070 min)
GTO integral calculation        ...        0.547 sec (=   0.009 min)  13.0 %
SCF iterations                  ...        3.647 sec (=   0.061 min)  87.0 %
                             ****ORCA TERMINATED NORMALLY****
TOTAL RUN TIME: 0 days 0 hours 0 minutes 4 seconds 686 msec
