
                                 *****************
                                 * O   R   C   A *
                                 *****************

           --- An Ab Initio, DFT and Semiempirical electronic structure package ---

                  #######################################################
                  #                        -***-                        #
                  #          Department of theory and spectroscopy      #
                  #               Directorship: Frank Neese             #
                  #        Max Planck Institute fuer Kohlenforschung    #
                  #                Kaiser Wilhelm Platz 1               #
                  #                 D-45470 Muelheim/Ruhr               #
                  #                      Germany                        #
                  #                                                     #
                  #                  All rights reserved                #
                  #                        -***-                        #
                  #######################################################


                         Program Version 4.2.0 -  RELEASE  -


 With contributions from (in alphabetic order):
   Daniel Aravena         : Magnetic Suceptibility
   Michael Atanasov       : Ab Initio Ligand Field Theory (pilot matlab implementation)
   Alexander A. Auer      : GIAO ZORA, VPT2
   Ute Becker             : Parallelization
   Giovanni Bistoni       : ED, misc. LED, open-shell LED, HFLED
   Martin Brehm           : Molecular dynamics
   Dmytro Bykov           : SCF Hessian
   Vijay G. Chilkuri      : MRCI spin determinant printing, contributions to CSF-ICE
   Dipayan Datta          : RHF DLPNO-CCSD density
   Achintya Kumar Dutta   : EOM-CC, STEOM-CC
   Dmitry Ganyushin       : Spin-Orbit,Spin-Spin,Magnetic field MRCI
   Miquel Garcia          : C-PCM Hessian, Gaussian charge scheme
   Yang Guo               : DLPNO-NEVPT2, CIM, IAO-localization
   Andreas Hansen         : Spin unrestricted coupled pair/coupled cluster methods
   Benjamin Helmich-Paris : CASSCF linear response (MC-RPA)
   Lee Huntington         : MR-EOM, pCC
   Robert Izsak           : Overlap fitted RIJCOSX, COSX-SCS-MP3, EOM
   Christian Kollmar      : KDIIS, OOCD, Brueckner-CCSD(T), CCSD density
   Simone Kossmann        : Meta GGA functionals, TD-DFT gradient, OOMP2, MP2 Hessian
   Martin Krupicka        : AUTO-CI
   Lucas Lang             : DCDCAS
   Dagmar Lenk            : GEPOL surface, SMD
   Dimitrios Liakos       : Extrapolation schemes; Compound Job, initial MDCI parallelization
   Dimitrios Manganas     : Further ROCIS development; embedding schemes
   Dimitrios Pantazis     : SARC Basis sets
   Taras Petrenko         : DFT Hessian,TD-DFT gradient, ASA, ECA, R-Raman, ABS, FL, XAS/XES, NRVS
   Peter Pinski           : DLPNO-MP2, DLPNO-MP2 Gradient
   Christoph Reimann      : Effective Core Potentials
   Marius Retegan         : Local ZFS, SOC
   Christoph Riplinger    : Optimizer, TS searches, QM/MM, DLPNO-CCSD(T), (RO)-DLPNO pert. Triples
   Tobias Risthaus        : Range-separated hybrids, TD-DFT gradient, RPA, STAB
   Michael Roemelt        : Original ROCIS implementation
   Masaaki Saitow         : Open-shell DLPNO-CCSD energy and density
   Barbara Sandhoefer     : DKH picture change effects
   Avijit Sen             : IP-ROCIS
   Kantharuban Sivalingam : CASSCF convergence, NEVPT2, FIC-MRCI
   Bernardo de Souza      : ESD, SOC TD-DFT
   Georgi Stoychev        : AutoAux, RI-MP2 NMR
   Willem Van den Heuvel  : Paramagnetic NMR
   Boris Wezisla          : Elementary symmetry handling
   Frank Wennmohs         : Technical directorship


 We gratefully acknowledge several colleagues who have allowed us to
 interface, adapt or use parts of their codes:
   Stefan Grimme, W. Hujo, H. Kruse,             : VdW corrections, initial TS optimization,
                  C. Bannwarth                     DFT functionals, gCP, sTDA/sTD-DF
   Ed Valeev, F. Pavosevic, A. Kumar             : LibInt (2-el integral package), F12 methods
   Garnet Chan, S. Sharma, J. Yang, R. Olivares  : DMRG
   Ulf Ekstrom                                   : XCFun DFT Library
   Mihaly Kallay                                 : mrcc  (arbitrary order and MRCC methods)
   Andreas Klamt, Michael Diedenhofen            : otool_cosmo (COSMO solvation model)
   Jiri Pittner, Ondrej Demel                    : Mk-CCSD
   Frank Weinhold                                : gennbo (NPA and NBO analysis)
   Christopher J. Cramer and Donald G. Truhlar   : smd solvation model
   Lars Goerigk                                  : TD-DFT with DH, B97 family of functionals
   V. Asgeirsson, H. Jonsson                     : NEB implementation
   FAccTs GmbH                                   : IRC, NEB, NEB-TS, Multilevel, MM, QM/MM, CI optimization
   S Lehtola, MJT Oliveira, MAL Marques          : LibXC Library


 Your calculation uses the libint2 library for the computation of 2-el integrals
 For citations please refer to: http://libint.valeyev.net

 Your ORCA version has been built with support for libXC version: 4.2.3
 For citations please refer to: https://tddft.org/programs/libxc/

 This ORCA versions uses:
   CBLAS   interface :  Fast vector & matrix operations
   LAPACKE interface :  Fast linear algebra routines
   SCALAPACK package :  Parallel linear algebra routines


Your calculation utilizes the atom-pairwise dispersion correction
with the Becke-Johnson damping scheme (D3BJ)
Cite in your paper:
S.Grimme, S.Ehrlich, L.Goerigk, J Comput Chem, (2011), 32, 1456–1465 
S.Grimme, J.Antony, S.Ehrlich and H.Krieg, J.Chem.Phys., 132, (2010), 154104 
   

----- Orbital basis set information -----
Your calculation utilizes the basis: def2-TZVPPD
   F. Weigend and R. Ahlrichs, Phys. Chem. Chem. Phys. 7, 3297 (2005).
   D. Rappoport and F. Furche, J. Chem. Phys. 133 134105 (2010).

----- AuxJ basis set information -----
Your calculation utilizes the auxiliary basis: def2/J
   F. Weigend, Phys. Chem. Chem. Phys. 8, 1057 (2006).

================================================================================
                                        WARNINGS
                       Please study these warnings very carefully!
================================================================================


INFO   : the flag for use of LIBINT has been found!

================================================================================
                                       INPUT FILE
================================================================================
NAME = 125.in
|  1> #
|  2> # 125 TPSS-D3BJ/Def2-TZVPPD
|  3> #
|  4> ! tpss d3bj def2-tzvppd def2/j grid4 nofinalgrid
|  5> 
|  6> *xyz 0 1
|  7> Li        -0.48880       -0.51538       -0.00659
|  8> H         -0.55944        2.54233       -0.00436
|  9> H         -2.17580       -1.82520        0.01329
| 10> C         -0.08896        1.54088       -0.00480
| 11> H         -1.56083       -2.26841        0.00934
| 12> Cl         1.44004       -1.55839       -0.00318
| 13> H          1.87023        0.32576       -0.00203
| 14> S          1.56356        1.75840       -0.00167
| 15> *
| 16> 
| 17> %maxcore 5000
| 18> 
| 19> %pal
| 20> nprocs = 24
| 21> end
| 22> 
| 23> 
| 24>                          ****END OF INPUT****
================================================================================

                       ****************************
                       * Single Point Calculation *
                       ****************************

---------------------------------
CARTESIAN COORDINATES (ANGSTROEM)
---------------------------------
  Li    -0.488800   -0.515380   -0.006590
  H     -0.559440    2.542330   -0.004360
  H     -2.175800   -1.825200    0.013290
  C     -0.088960    1.540880   -0.004800
  H     -1.560830   -2.268410    0.009340
  Cl     1.440040   -1.558390   -0.003180
  H      1.870230    0.325760   -0.002030
  S      1.563560    1.758400   -0.001670

----------------------------
CARTESIAN COORDINATES (A.U.)
----------------------------
  NO LB      ZA    FRAG     MASS         X           Y           Z
   0 Li    3.0000    0     6.941   -0.923698   -0.973927   -0.012453
   1 H     1.0000    0     1.008   -1.057188    4.804307   -0.008239
   2 H     1.0000    0     1.008   -4.111666   -3.449128    0.025114
   3 C     6.0000    0    12.011   -0.168110    2.911841   -0.009071
   4 H     1.0000    0     1.008   -2.949541   -4.286674    0.017650
   5 Cl   17.0000    0    35.453    2.721281   -2.944930   -0.006009
   6 H     1.0000    0     1.008    3.534223    0.615597   -0.003836
   7 S    16.0000    0    32.060    2.954700    3.322894   -0.003156

--------------------------------
INTERNAL COORDINATES (ANGSTROEM)
--------------------------------
 Li     0   0   0     0.000000000000     0.00000000     0.00000000
 H      1   0   0     3.058526675803     0.00000000     0.00000000
 H      1   2   0     2.135882170626   126.50071006     0.00000000
 C      2   1   3     1.106459997695    23.84065851   179.26748819
 H      3   1   2     0.758049343711    73.60489169   180.29230586
 Cl     1   2   3     2.192784812470   119.72537428   180.82080184
 H      6   1   2     1.932637053639    74.45934163   359.96118560
 S      7   6   1     1.465095214687   155.05630218     0.06204449

---------------------------
INTERNAL COORDINATES (A.U.)
---------------------------
 Li     0   0   0     0.000000000000     0.00000000     0.00000000
 H      1   0   0     5.779777790561     0.00000000     0.00000000
 H      1   2   0     4.036232356809   126.50071006     0.00000000
 C      2   1   3     2.090906373783    23.84065851   179.26748819
 H      3   1   2     1.432505655612    73.60489169   180.29230586
 Cl     1   2   3     4.143762766191   119.72537428   180.82080184
 H      6   1   2     3.652154747647    74.45934163   359.96118560
 S      7   6   1     2.768628715878   155.05630218     0.06204449

---------------------
BASIS SET INFORMATION
---------------------
There are 5 groups of distinct atoms

 Group   1 Type Li  : 11s4p1d contracted to 5s4p1d pattern {62111/1111/1}
 Group   2 Type H   : 5s3p1d contracted to 3s3p1d pattern {311/111/1}
 Group   3 Type C   : 12s6p3d1f contracted to 6s3p3d1f pattern {621111/411/111/1}
 Group   4 Type Cl  : 15s10p4d1f contracted to 6s6p4d1f pattern {732111/511111/1111/1}
 Group   5 Type S   : 15s10p4d1f contracted to 6s6p4d1f pattern {732111/511111/1111/1}

Atom   0Li   basis set group =>   1
Atom   1H    basis set group =>   2
Atom   2H    basis set group =>   2
Atom   3C    basis set group =>   3
Atom   4H    basis set group =>   2
Atom   5Cl   basis set group =>   4
Atom   6H    basis set group =>   2
Atom   7S    basis set group =>   5
---------------------------------
AUXILIARY/J BASIS SET INFORMATION
---------------------------------
There are 5 groups of distinct atoms

 Group   1 Type Li  : 12s5p4d2f1g contracted to 6s4p3d1f1g pattern {711111/2111/211/2/1}
 Group   2 Type H   : 5s2p1d contracted to 3s1p1d pattern {311/2/1}
 Group   3 Type C   : 12s5p4d2f1g contracted to 6s4p3d1f1g pattern {711111/2111/211/2/1}
 Group   4 Type Cl  : 14s5p5d2f1g contracted to 8s4p3d1f1g pattern {71111111/2111/311/2/1}
 Group   5 Type S   : 14s5p5d2f1g contracted to 8s4p3d1f1g pattern {71111111/2111/311/2/1}

Atom   0Li   basis set group =>   1
Atom   1H    basis set group =>   2
Atom   2H    basis set group =>   2
Atom   3C    basis set group =>   3
Atom   4H    basis set group =>   2
Atom   5Cl   basis set group =>   4
Atom   6H    basis set group =>   2
Atom   7S    basis set group =>   5


           ************************************************************
           *        Program running with 24 parallel MPI-processes    *
           *              working on a common directory               *
           ************************************************************
------------------------------------------------------------------------------
                           ORCA GTO INTEGRAL CALCULATION
                           -- RI-GTO INTEGRALS CHOSEN --
------------------------------------------------------------------------------

                         BASIS SET STATISTICS AND STARTUP INFO

Gaussian basis set:
 # of primitive gaussian shells          ...  134
 # of primitive gaussian functions       ...  300
 # of contracted shells                  ...   85
 # of contracted basis functions         ...  229
 Highest angular momentum                ...    3
 Maximum contraction depth               ...    7
Auxiliary gaussian basis set:
 # of primitive gaussian shells          ...  134
 # of primitive gaussian functions       ...  358
 # of contracted shells                  ...   84
 # of contracted aux-basis functions     ...  244
 Highest angular momentum                ...    4
 Maximum contraction depth               ...    7
Ratio of auxiliary to basis functions    ...  1.07
Integral package used                  ... LIBINT
 One Electron integrals                  ... done
 Ordering auxiliary basis shells         ... done
 Integral threshhold             Thresh  ...  1.000e-10
 Primitive cut-off               TCut    ...  1.000e-11
 Pre-screening matrix                    ... done
 Shell pair data                         ... 
 Ordering of the shell pairs             ... done (   0.001 sec) 3371 of 3655 pairs
 Determination of significant pairs      ... done (   0.000 sec)
 Creation of shell pair data             ... done (   0.000 sec)
 Storage of shell pair data              ... done (   0.026 sec)
 Shell pair data done in (   0.027 sec)
 Computing two index integrals           ... done
 Cholesky decomposition of the V-matrix  ... done


Timings:
 Total evaluation time                   ...   0.205 sec (  0.003 min)
 One electron matrix time                ...   0.029 sec (  0.000 min) = 14.3%
 Schwartz matrix evaluation time         ...   0.127 sec (  0.002 min) = 62.2%
 Two index repulsion integral time       ...   0.002 sec (  0.000 min) =  0.8%
 Cholesky decomposition of V             ...   0.001 sec (  0.000 min) =  0.7%
 Three index repulsion integral time     ...   0.000 sec (  0.000 min) =  0.0%



           ************************************************************
           *        Program running with 24 parallel MPI-processes    *
           *              working on a common directory               *
           ************************************************************
-------------------------------------------------------------------------------
                                 ORCA SCF
-------------------------------------------------------------------------------

------------
SCF SETTINGS
------------
Hamiltonian:
 Density Functional     Method          .... DFT(GTOs)
 Exchange Functional    Exchange        .... TPSS
 Correlation Functional Correlation     .... TPSS
 LDA part of GGA corr.  LDAOpt          .... PW91-LDA
 Gradients option       PostSCFGGA      .... off
   Density functional embedding theory  .... OFF
   NL short-range parameter             ....  5.000000
 RI-approximation to the Coulomb term is turned on
   Number of auxiliary basis functions  .... 244


General Settings:
 Integral files         IntName         .... 125
 Hartree-Fock type      HFTyp           .... RHF
 Total Charge           Charge          ....    0
 Multiplicity           Mult            ....    1
 Number of Electrons    NEL             ....   46
 Basis Dimension        Dim             ....  229
 Nuclear Repulsion      ENuc            ....    149.2653237614 Eh

Convergence Acceleration:
 DIIS                   CNVDIIS         .... on
   Start iteration      DIISMaxIt       ....    12
   Startup error        DIISStart       ....  0.200000
   # of expansion vecs  DIISMaxEq       ....     5
   Bias factor          DIISBfac        ....   1.050
   Max. coefficient     DIISMaxC        ....  10.000
 Newton-Raphson         CNVNR           .... off
 SOSCF                  CNVSOSCF        .... on
   Start iteration      SOSCFMaxIt      ....   150
   Startup grad/error   SOSCFStart      ....  0.003300
 Level Shifting         CNVShift        .... on
   Level shift para.    LevelShift      ....    0.2500
   Turn off err/grad.   ShiftErr        ....    0.0010
 Zerner damping         CNVZerner       .... off
 Static damping         CNVDamp         .... on
   Fraction old density DampFac         ....    0.7000
   Max. Damping (<1)    DampMax         ....    0.9800
   Min. Damping (>=0)   DampMin         ....    0.0000
   Turn off err/grad.   DampErr         ....    0.1000
 Fernandez-Rico         CNVRico         .... off

SCF Procedure:
 Maximum # iterations   MaxIter         ....   125
 SCF integral mode      SCFMode         .... Direct
   Integral package                     .... LIBINT
 Reset frequency        DirectResetFreq ....    20
 Integral Threshold     Thresh          ....  1.000e-10 Eh
 Primitive CutOff       TCut            ....  1.000e-11 Eh

Convergence Tolerance:
 Convergence Check Mode ConvCheckMode   .... Total+1el-Energy
 Convergence forced     ConvForced      .... 0
 Energy Change          TolE            ....  1.000e-06 Eh
 1-El. energy change                    ....  1.000e-03 Eh
 Orbital Gradient       TolG            ....  5.000e-05
 Orbital Rotation angle TolX            ....  5.000e-05
 DIIS Error             TolErr          ....  1.000e-06


Diagonalization of the overlap matrix:
Smallest eigenvalue                        ... 6.180e-05
Time for diagonalization                   ...    0.011 sec
Threshold for overlap eigenvalues          ... 1.000e-08
Number of eigenvalues below threshold      ... 0
Time for construction of square roots      ...    0.006 sec
Total time needed                          ...    0.017 sec

-------------------
DFT GRID GENERATION
-------------------

General Integration Accuracy     IntAcc      ...  4.670
Radial Grid Type                 RadialGrid  ... Gauss-Chebyshev
Angular Grid (max. acc.)         AngularGrid ... Lebedev-302
Angular grid pruning method      GridPruning ... 3 (G Style)
Weight generation scheme         WeightScheme... Becke
Basis function cutoff            BFCut       ...    1.0000e-10
Integration weight cutoff        WCut        ...    1.0000e-14
Grids for H and He will be reduced by one unit

# of grid points (after initial pruning)     ...  39248 (   0.0 sec)
# of grid points (after weights+screening)   ...  37628 (   0.0 sec)
nearest neighbour list constructed           ...    0.0 sec
Grid point re-assignment to atoms done       ...    0.0 sec
Grid point division into batches done        ...    0.1 sec
Reduced shell lists constructed in    0.1 sec

Total number of grid points                  ...    37628
Total number of batches                      ...      591
Average number of points per batch           ...       63
Average number of grid points per atom       ...     4704
Average number of shells per batch           ...    55.54 (65.34%)
Average number of basis functions per batch  ...   152.23 (66.48%)
Average number of large shells per batch     ...    45.77 (82.41%)
Average number of large basis fcns per batch ...   122.69 (80.60%)
Maximum spatial batch extension              ...   5.57,  5.09, 29.34 au
Average spatial batch extension              ...   0.13,  0.12,  0.20 au

Time for grid setup =    0.203 sec

------------------------------
INITIAL GUESS: MODEL POTENTIAL
------------------------------
Loading Hartree-Fock densities                     ... done
Calculating cut-offs                               ... done
Setting up the integral package                    ... done
Initializing the effective Hamiltonian             ... done
Starting the Coulomb interaction                   ... done (   0.0 sec)
Reading the grid                                   ... done
Mapping shells                                     ... done
Starting the XC term evaluation                    ... done (   0.0 sec)
  promolecular density results
     # of electrons  =     45.998176399
     EX              =    -60.258688204
     EC              =     -1.633679931
     EX+EC           =    -61.892368135
Transforming the Hamiltonian                       ... done (   0.0 sec)
Diagonalizing the Hamiltonian                      ... done (   0.0 sec)
Back transforming the eigenvectors                 ... done (   0.0 sec)
Now organizing SCF variables                       ... done
                      ------------------
                      INITIAL GUESS DONE (   0.3 sec)
                      ------------------
--------------
SCF ITERATIONS
--------------
ITER       Energy         Delta-E        Max-DP      RMS-DP      [F,P]     Damp
               ***  Starting incremental Fock matrix formation  ***
  0   -906.3996061842   0.000000000000 0.07439773  0.00102869  0.2506928 0.7000
  1   -906.4656375681  -0.066031383825 0.04138550  0.00072330  0.0901567 0.7000
                               ***Turning on DIIS***
  2   -906.4808983046  -0.015260736503 0.08957077  0.00128342  0.0234916 0.0000
  3   -906.5051410782  -0.024242773602 0.03732385  0.00051765  0.0699958 0.0000
  4   -906.5168784014  -0.011737323185 0.02617449  0.00029439  0.0156630 0.0000
  5   -906.5180940828  -0.001215681395 0.00664534  0.00008985  0.0034341 0.0000
                      *** Initiating the SOSCF procedure ***
                           *** Shutting down DIIS ***
                      *** Re-Reading the Fockian *** 
                      *** Removing any level shift *** 
ITER      Energy       Delta-E        Grad      Rot      Max-DP    RMS-DP
  6   -906.51816258  -0.0000684933  0.000674  0.000674  0.001841  0.000034
               *** Restarting incremental Fock matrix formation ***
  7   -906.51817366  -0.0000110824  0.000349  0.002009  0.001428  0.000032
                 **** Energy Check signals convergence ****
              ***Rediagonalizing the Fockian in SOSCF/NRSCF***

               *****************************************************
               *                     SUCCESS                       *
               *           SCF CONVERGED AFTER   8 CYCLES          *
               *****************************************************


----------------
TOTAL SCF ENERGY
----------------

Total Energy       :         -906.51817428 Eh          -24667.61360 eV

Components:
Nuclear Repulsion  :          149.26532376 Eh            4061.71595 eV
Electronic Energy  :        -1055.78349804 Eh          -28729.32955 eV
One Electron Energy:        -1547.32981129 Eh          -42104.98474 eV
Two Electron Energy:          491.54631325 Eh           13375.65519 eV

Virial components:
Potential Energy   :        -1811.11467843 Eh          -49282.93590 eV
Kinetic Energy     :          904.59650415 Eh           24615.32230 eV
Virial Ratio       :            2.00212434


DFT components:
N(Alpha)           :       23.000047996651 electrons
N(Beta)            :       23.000047996651 electrons
N(Total)           :       46.000095993301 electrons
E(X)               :      -61.090413304952 Eh       
E(C)               :       -1.653856718465 Eh       
E(XC)              :      -62.744270023417 Eh       
DFET-embed. en.    :        0.000000000000 Eh       

---------------
SCF CONVERGENCE
---------------

  Last Energy change         ...   -6.2015e-07  Tolerance :   1.0000e-06
  Last MAX-Density change    ...    7.6040e-04  Tolerance :   1.0000e-05
  Last RMS-Density change    ...    1.5476e-05  Tolerance :   1.0000e-06
  Last Orbital Gradient      ...    5.8030e-04  Tolerance :   5.0000e-05
  Last Orbital Rotation      ...    9.3945e-04  Tolerance :   5.0000e-05

             **** THE GBW FILE WAS UPDATED (125.gbw) ****
             **** DENSITY FILE WAS UPDATED (125.scfp) ****
             **** ENERGY FILE WAS UPDATED (125.en.tmp) ****
             **** THE GBW FILE WAS UPDATED (125.gbw) ****
             **** DENSITY FILE WAS UPDATED (125.scfp) ****
----------------
ORBITAL ENERGIES
----------------

  NO   OCC          E(Eh)            E(eV) 
   0   2.0000    -100.910044     -2745.9019 
   1   2.0000     -88.402708     -2405.5600 
   2   2.0000     -10.047324      -273.4016 
   3   2.0000      -9.160736      -249.2763 
   4   2.0000      -7.782939      -211.7845 
   5   2.0000      -6.934189      -188.6889 
   6   2.0000      -6.933098      -188.6592 
   7   2.0000      -6.932316      -188.6379 
   8   2.0000      -5.760475      -156.7505 
   9   2.0000      -5.759906      -156.7350 
  10   2.0000      -5.756755      -156.6493 
  11   2.0000      -1.881448       -51.1968 
  12   2.0000      -0.760111       -20.6837 
  13   2.0000      -0.675905       -18.3923 
  14   2.0000      -0.557734       -15.1767 
  15   2.0000      -0.450572       -12.2607 
  16   2.0000      -0.392254       -10.6738 
  17   2.0000      -0.378205       -10.2915 
  18   2.0000      -0.312047        -8.4912 
  19   2.0000      -0.256146        -6.9701 
  20   2.0000      -0.248228        -6.7546 
  21   2.0000      -0.230531        -6.2731 
  22   2.0000      -0.220348        -5.9960 
  23   0.0000      -0.137772        -3.7490 
  24   0.0000      -0.027625        -0.7517 
  25   0.0000      -0.010875        -0.2959 
  26   0.0000      -0.000583        -0.0159 
  27   0.0000       0.006626         0.1803 
  28   0.0000       0.010519         0.2862 
  29   0.0000       0.020689         0.5630 
  30   0.0000       0.029032         0.7900 
  31   0.0000       0.040374         1.0986 
  32   0.0000       0.052001         1.4150 
  33   0.0000       0.060116         1.6358 
  34   0.0000       0.068333         1.8594 
  35   0.0000       0.068527         1.8647 
  36   0.0000       0.076594         2.0842 
  37   0.0000       0.078236         2.1289 
  38   0.0000       0.089217         2.4277 
  39   0.0000       0.100146         2.7251 
  40   0.0000       0.102420         2.7870 
  41   0.0000       0.113296         3.0830 
  42   0.0000       0.122628         3.3369 
  43   0.0000       0.146432         3.9846 
  44   0.0000       0.158385         4.3099 
  45   0.0000       0.168084         4.5738 
  46   0.0000       0.173652         4.7253 
  47   0.0000       0.177094         4.8190 
  48   0.0000       0.184203         5.0124 
  49   0.0000       0.184390         5.0175 
  50   0.0000       0.197213         5.3664 
  51   0.0000       0.207853         5.6560 
  52   0.0000       0.221964         6.0400 
  53   0.0000       0.224962         6.1215 
  54   0.0000       0.229220         6.2374 
  55   0.0000       0.236792         6.4434 
  56   0.0000       0.247564         6.7366 
  57   0.0000       0.260899         7.0994 
  58   0.0000       0.264831         7.2064 
  59   0.0000       0.277777         7.5587 
  60   0.0000       0.283512         7.7148 
  61   0.0000       0.288839         7.8597 
  62   0.0000       0.297934         8.1072 
  63   0.0000       0.299337         8.1454 
  64   0.0000       0.307484         8.3671 
  65   0.0000       0.318658         8.6711 
  66   0.0000       0.337332         9.1793 
  67   0.0000       0.351478         9.5642 
  68   0.0000       0.352653         9.5962 
  69   0.0000       0.368021        10.0143 
  70   0.0000       0.376864        10.2550 
  71   0.0000       0.395956        10.7745 
  72   0.0000       0.408059        11.1039 
  73   0.0000       0.433946        11.8083 
  74   0.0000       0.435867        11.8606 
  75   0.0000       0.450270        12.2525 
  76   0.0000       0.456854        12.4316 
  77   0.0000       0.458862        12.4863 
  78   0.0000       0.470272        12.7968 
  79   0.0000       0.483016        13.1435 
  80   0.0000       0.489359        13.3161 
  81   0.0000       0.508239        13.8299 
  82   0.0000       0.531093        14.4518 
  83   0.0000       0.546804        14.8793 
  84   0.0000       0.550872        14.9900 
  85   0.0000       0.569660        15.5012 
  86   0.0000       0.610645        16.6165 
  87   0.0000       0.612654        16.6712 
  88   0.0000       0.617151        16.7935 
  89   0.0000       0.629927        17.1412 
  90   0.0000       0.635129        17.2827 
  91   0.0000       0.640278        17.4229 
  92   0.0000       0.655171        17.8281 
  93   0.0000       0.657080        17.8800 
  94   0.0000       0.686103        18.6698 
  95   0.0000       0.689433        18.7604 
  96   0.0000       0.697812        18.9884 
  97   0.0000       0.706361        19.2211 
  98   0.0000       0.723651        19.6915 
  99   0.0000       0.743773        20.2391 
 100   0.0000       0.781952        21.2780 
 101   0.0000       0.793275        21.5861 
 102   0.0000       0.801432        21.8081 
 103   0.0000       0.817987        22.2585 
 104   0.0000       0.837985        22.8027 
 105   0.0000       0.916109        24.9286 
 106   0.0000       0.925797        25.1922 
 107   0.0000       0.936787        25.4913 
 108   0.0000       0.943935        25.6858 
 109   0.0000       0.968514        26.3546 
 110   0.0000       1.038182        28.2504 
 111   0.0000       1.065001        28.9802 
 112   0.0000       1.068928        29.0870 
 113   0.0000       1.106503        30.1095 
 114   0.0000       1.129952        30.7476 
 115   0.0000       1.139200        30.9992 
 116   0.0000       1.184838        32.2411 
 117   0.0000       1.209657        32.9165 
 118   0.0000       1.287322        35.0298 
 119   0.0000       1.362166        37.0664 
 120   0.0000       1.406113        38.2623 
 121   0.0000       1.443339        39.2753 
 122   0.0000       1.502499        40.8851 
 123   0.0000       1.532048        41.6892 
 124   0.0000       1.537138        41.8277 
 125   0.0000       1.537849        41.8470 
 126   0.0000       1.547437        42.1079 
 127   0.0000       1.640650        44.6444 
 128   0.0000       1.665200        45.3124 
 129   0.0000       1.674035        45.5528 
 130   0.0000       1.695309        46.1317 
 131   0.0000       1.754849        47.7519 
 132   0.0000       1.758451        47.8499 
 133   0.0000       1.821661        49.5699 
 134   0.0000       1.870137        50.8890 
 135   0.0000       1.910139        51.9775 
 136   0.0000       1.914890        52.1068 
 137   0.0000       1.954613        53.1877 
 138   0.0000       1.992725        54.2248 
 139   0.0000       1.993201        54.2378 
 140   0.0000       2.002661        54.4952 
 141   0.0000       2.047520        55.7159 
 142   0.0000       2.059208        56.0339 
 143   0.0000       2.082949        56.6799 
 144   0.0000       2.131211        57.9932 
 145   0.0000       2.158167        58.7267 
 146   0.0000       2.158844        58.7451 
 147   0.0000       2.173625        59.1473 
 148   0.0000       2.196743        59.7764 
 149   0.0000       2.214219        60.2520 
 150   0.0000       2.239767        60.9472 
 151   0.0000       2.270327        61.7787 
 152   0.0000       2.401195        65.3398 
 153   0.0000       2.468273        67.1651 
 154   0.0000       2.512576        68.3707 
 155   0.0000       2.554673        69.5162 
 156   0.0000       2.565262        69.8043 
 157   0.0000       2.607208        70.9457 
 158   0.0000       2.611186        71.0540 
 159   0.0000       2.679533        72.9138 
 160   0.0000       2.744890        74.6922 
 161   0.0000       2.815055        76.6015 
 162   0.0000       2.868584        78.0581 
 163   0.0000       2.891746        78.6884 
 164   0.0000       2.901604        78.9567 
 165   0.0000       2.952010        80.3283 
 166   0.0000       3.015558        82.0575 
 167   0.0000       3.083647        83.9103 
 168   0.0000       3.109412        84.6114 
 169   0.0000       3.148773        85.6825 
 170   0.0000       3.224648        87.7471 
 171   0.0000       3.304794        89.9280 
 172   0.0000       3.323123        90.4268 
 173   0.0000       3.433428        93.4283 
 174   0.0000       3.457593        94.0859 
 175   0.0000       3.499495        95.2261 
 176   0.0000       3.554440        96.7212 
 177   0.0000       3.564590        96.9974 
 178   0.0000       3.609058        98.2075 
 179   0.0000       3.648013        99.2675 
 180   0.0000       3.656138        99.4886 
 181   0.0000       3.694156       100.5231 
 182   0.0000       3.752486       102.1103 
 183   0.0000       3.763566       102.4118 
 184   0.0000       3.772205       102.6469 
 185   0.0000       3.815647       103.8290 
 186   0.0000       3.837089       104.4125 
 187   0.0000       3.870763       105.3288 
 188   0.0000       3.980169       108.3059 
 189   0.0000       3.991703       108.6198 
 190   0.0000       4.017134       109.3118 
 191   0.0000       4.031639       109.7065 
 192   0.0000       4.062144       110.5366 
 193   0.0000       4.182559       113.8132 
 194   0.0000       4.212792       114.6359 
 195   0.0000       4.380797       119.2076 
 196   0.0000       4.512579       122.7935 
 197   0.0000       4.675122       127.2166 
 198   0.0000       4.777718       130.0083 
 199   0.0000       4.898726       133.3011 
 200   0.0000       5.000668       136.0751 
 201   0.0000       5.417703       147.4232 
 202   0.0000       5.474880       148.9791 
 203   0.0000       5.476669       149.0277 
 204   0.0000       5.812482       158.1657 
 205   0.0000       5.827931       158.5861 
 206   0.0000       6.072161       165.2319 
 207   0.0000       6.174765       168.0239 
 208   0.0000       6.661479       181.2681 
 209   0.0000       6.683326       181.8626 
 210   0.0000       6.793723       184.8666 
 211   0.0000       6.839467       186.1114 
 212   0.0000       7.342255       199.7929 
 213   0.0000       7.375806       200.7059 
 214   0.0000       8.129586       221.2173 
 215   0.0000       8.137822       221.4414 
 216   0.0000       8.171983       222.3710 
 217   0.0000       8.207705       223.3430 
 218   0.0000       8.283536       225.4065 
 219   0.0000       8.835663       240.4306 
 220   0.0000       9.163610       249.3545 
 221   0.0000       9.301724       253.1128 
 222   0.0000      10.770045       293.0678 
 223   0.0000      10.913484       296.9710 
 224   0.0000      11.055598       300.8381 
 225   0.0000      14.812267       403.0623 
 226   0.0000      20.240907       550.7831 
 227   0.0000      22.369656       608.7093 
 228   0.0000      25.523658       694.5341 

                    ********************************
                    * MULLIKEN POPULATION ANALYSIS *
                    ********************************

-----------------------
MULLIKEN ATOMIC CHARGES
-----------------------
   0 Li:    0.747977
   1 H :   -0.008296
   2 H :   -0.073913
   3 C :   -0.217349
   4 H :    0.138588
   5 Cl:   -0.758109
   6 H :    0.336453
   7 S :   -0.165350
Sum of atomic charges:    0.0000000

--------------------------------
MULLIKEN REDUCED ORBITAL CHARGES
--------------------------------
  0 Lis       :     2.099729  s :     2.099729
      pz      :     0.017205  p :     0.039647
      px      :     0.015959
      py      :     0.006483
      dz2     :     0.016026  d :     0.112646
      dxz     :     0.007356
      dyz     :     0.009208
      dx2y2   :     0.035245
      dxy     :     0.044812
  1 H s       :     0.889183  s :     0.889183
      pz      :     0.011378  p :     0.117311
      px      :     0.024001
      py      :     0.081932
      dz2     :     0.000018  d :     0.001802
      dxz     :     0.000145
      dyz     :     0.000237
      dx2y2   :     0.000907
      dxy     :     0.000496
  2 H s       :     1.044505  s :     1.044505
      pz      :     0.000410  p :     0.029259
      px      :     0.024037
      py      :     0.004812
      dz2     :     0.000147  d :     0.000149
      dxz     :     0.000001
      dyz     :     0.000000
      dx2y2   :     0.000024
      dxy     :    -0.000023
  3 C s       :     3.474232  s :     3.474232
      pz      :     0.528501  p :     2.667066
      px      :     0.811305
      py      :     1.327260
      dz2     :     0.006891  d :     0.072534
      dxz     :     0.019091
      dyz     :     0.008349
      dx2y2   :     0.014388
      dxy     :     0.023817
      f0      :     0.000484  f :     0.003517
      f+1     :     0.000173
      f-1     :     0.000260
      f+2     :     0.000720
      f-2     :     0.000062
      f+3     :     0.000964
      f-3     :     0.000853
  4 H s       :     0.834780  s :     0.834780
      pz      :     0.000452  p :     0.026585
      px      :     0.024741
      py      :     0.001393
      dz2     :     0.000108  d :     0.000047
      dxz     :     0.000003
      dyz     :     0.000001
      dx2y2   :    -0.000007
      dxy     :    -0.000057
  5 Cls       :     6.031647  s :     6.031647
      pz      :     3.955040  p :    11.705348
      px      :     3.904468
      py      :     3.845840
      dz2     :     0.003206  d :     0.020665
      dxz     :     0.001307
      dyz     :     0.002541
      dx2y2   :     0.008431
      dxy     :     0.005181
      f0      :     0.000040  f :     0.000449
      f+1     :     0.000048
      f-1     :     0.000127
      f+2     :     0.000003
      f-2     :     0.000005
      f+3     :     0.000082
      f-3     :     0.000144
  6 H s       :     0.662629  s :     0.662629
      pz      :     0.011842  p :    -0.001100
      px      :    -0.006315
      py      :    -0.006626
      dz2     :     0.000249  d :     0.002017
      dxz     :     0.000049
      dyz     :     0.000469
      dx2y2   :     0.000714
      dxy     :     0.000536
  7 S s       :     5.979358  s :     5.979358
      pz      :     3.402178  p :     9.990228
      px      :     3.171735
      py      :     3.416315
      dz2     :     0.012621  d :     0.182902
      dxz     :     0.020970
      dyz     :     0.000128
      dx2y2   :     0.059596
      dxy     :     0.089586
      f0      :     0.000775  f :     0.012862
      f+1     :     0.001388
      f-1     :     0.000783
      f+2     :     0.001040
      f-2     :     0.000020
      f+3     :     0.002890
      f-3     :     0.005966


                     *******************************
                     * LOEWDIN POPULATION ANALYSIS *
                     *******************************

----------------------
LOEWDIN ATOMIC CHARGES
----------------------
   0 Li:   -0.013215
   1 H :   -0.171642
   2 H :    0.089476
   3 C :   -0.362379
   4 H :    0.063548
   5 Cl:   -0.023533
   6 H :   -0.419322
   7 S :    0.837067

-------------------------------
LOEWDIN REDUCED ORBITAL CHARGES
-------------------------------
  0 Lis       :     2.100793  s :     2.100793
      pz      :     0.051572  p :     0.471609
      px      :     0.178312
      py      :     0.241726
      dz2     :     0.062697  d :     0.440813
      dxz     :     0.045085
      dyz     :     0.034632
      dx2y2   :     0.121822
      dxy     :     0.176577
  1 H s       :     0.773348  s :     0.773348
      pz      :     0.061102  p :     0.370159
      px      :     0.120483
      py      :     0.188574
      dz2     :     0.002929  d :     0.028135
      dxz     :     0.000995
      dyz     :     0.003502
      dx2y2   :     0.011430
      dxy     :     0.009279
  2 H s       :     0.831446  s :     0.831446
      pz      :     0.000656  p :     0.073178
      px      :     0.050647
      py      :     0.021875
      dz2     :     0.001644  d :     0.005899
      dxz     :     0.000004
      dyz     :     0.000003
      dx2y2   :     0.000515
      dxy     :     0.003734
  3 C s       :     3.009843  s :     3.009843
      pz      :     0.509186  p :     2.776609
      px      :     1.062629
      py      :     1.204795
      dz2     :     0.061425  d :     0.551923
      dxz     :     0.102013
      dyz     :     0.007936
      dx2y2   :     0.177753
      dxy     :     0.202796
      f0      :     0.001497  f :     0.024004
      f+1     :     0.002972
      f-1     :     0.001402
      f+2     :     0.004004
      f-2     :     0.000479
      f+3     :     0.006564
      f-3     :     0.007085
  4 H s       :     0.810716  s :     0.810716
      pz      :     0.002203  p :     0.119661
      px      :     0.083412
      py      :     0.034047
      dz2     :     0.001682  d :     0.006075
      dxz     :     0.000004
      dyz     :     0.000003
      dx2y2   :     0.000341
      dxy     :     0.004046
  5 Cls       :     5.635181  s :     5.635181
      pz      :     3.840700  p :    11.282782
      px      :     3.774152
      py      :     3.667930
      dz2     :     0.022397  d :     0.104428
      dxz     :     0.000591
      dyz     :     0.003176
      dx2y2   :     0.048494
      dxy     :     0.029769
      f0      :     0.000006  f :     0.001142
      f+1     :     0.000040
      f-1     :     0.000339
      f+2     :     0.000001
      f-2     :     0.000001
      f+3     :     0.000334
      f-3     :     0.000421
  6 H s       :     0.706896  s :     0.706896
      pz      :     0.108395  p :     0.690767
      px      :     0.103510
      py      :     0.478862
      dz2     :     0.002890  d :     0.021660
      dxz     :     0.000278
      dyz     :     0.004363
      dx2y2   :     0.008929
      dxy     :     0.005200
  7 S s       :     5.145937  s :     5.145937
      pz      :     3.185845  p :     9.533194
      px      :     3.118117
      py      :     3.229232
      dz2     :     0.056512  d :     0.449089
      dxz     :     0.021421
      dyz     :     0.007778
      dx2y2   :     0.164225
      dxy     :     0.199154
      f0      :     0.000513  f :     0.034713
      f+1     :     0.003625
      f-1     :     0.001861
      f+2     :     0.001961
      f-2     :     0.000132
      f+3     :     0.008893
      f-3     :     0.017727


                      *****************************
                      * MAYER POPULATION ANALYSIS *
                      *****************************

  NA   - Mulliken gross atomic population
  ZA   - Total nuclear charge
  QA   - Mulliken gross atomic charge
  VA   - Mayer's total valence
  BVA  - Mayer's bonded valence
  FA   - Mayer's free valence

  ATOM       NA         ZA         QA         VA         BVA        FA
  0 Li     2.2520     3.0000     0.7480     0.4750     0.4750    -0.0000
  1 H      1.0083     1.0000    -0.0083     1.2310     1.2310     0.0000
  2 H      1.0739     1.0000    -0.0739     1.0305     1.0305    -0.0000
  3 C      6.2173     6.0000    -0.2173     3.0220     3.0220     0.0000
  4 H      0.8614     1.0000     0.1386     0.9706     0.9706    -0.0000
  5 Cl    17.7581    17.0000    -0.7581     0.4857     0.4857     0.0000
  6 H      0.6635     1.0000     0.3365     0.8031     0.8031    -0.0000
  7 S     16.1654    16.0000    -0.1654     2.4551     2.4551     0.0000

  Mayer bond orders larger than 0.100000
B(  0-Li,  3-C ) :   0.1000 B(  0-Li,  5-Cl) :   0.1970 B(  1-H ,  3-C ) :   1.1659 
B(  2-H ,  4-H ) :   0.9172 B(  3-C ,  7-S ) :   1.6697 B(  5-Cl,  6-H ) :   0.1307 
B(  6-H ,  7-S ) :   0.6674 

-------
TIMINGS
-------

Total SCF time: 0 days 0 hours 0 min 1 sec 

Total time                  ....       1.749 sec
Sum of individual times     ....       1.615 sec  ( 92.3%)

Fock matrix formation       ....       1.199 sec  ( 68.5%)
  Split-RI-J                ....       0.711 sec  ( 59.3% of F)
  XC integration            ....       0.454 sec  ( 37.9% of F)
    Basis function eval.    ....       0.050 sec  ( 11.1% of XC)
    Density eval.           ....       0.087 sec  ( 19.2% of XC)
    XC-Functional eval.     ....       0.027 sec  (  5.9% of XC)
    XC-Potential eval.      ....       0.195 sec  ( 43.0% of XC)
Diagonalization             ....       0.055 sec  (  3.1%)
Density matrix formation    ....       0.008 sec  (  0.5%)
Population analysis         ....       0.008 sec  (  0.5%)
Initial guess               ....       0.111 sec  (  6.3%)
Orbital Transformation      ....       0.000 sec  (  0.0%)
Orbital Orthonormalization  ....       0.000 sec  (  0.0%)
DIIS solution               ....       0.021 sec  (  1.2%)
SOSCF solution              ....       0.011 sec  (  0.6%)
Grid generation             ....       0.203 sec  ( 11.6%)


-------------------------------------------------------------------------------
                          DFT DISPERSION CORRECTION                            
                                                                               
                              DFTD3 V3.1  Rev 1                                
                          USING Becke-Johnson damping                          
-------------------------------------------------------------------------------
The TPSS functional is recognized
Active option DFTDOPT                   ...         4   

molecular C6(AA) [au] = 1701.286196 


            DFT-D V3
 parameters
 s6 scaling factor         :     1.0000 
 a1 scaling factor         :     0.4535 
 s8 scaling factor         :     1.9435 
 a2 scaling factor         :     4.4752 
 ad hoc parameters k1-k3   :    16.0000     1.3333    -4.0000 

 Edisp/kcal,au: -5.401205057041  -0.008607367226 
 E6   /kcal   :  -2.306768604 
 E8   /kcal   :  -3.094436453 
 % E8         :  57.291593649 

-------------------------   ----------------
Dispersion correction           -0.008607367
-------------------------   ----------------


-------------------------   --------------------
FINAL SINGLE POINT ENERGY      -906.526781645882
-------------------------   --------------------


                            ***************************************
                            *     ORCA property calculations      *
                            ***************************************

                                    ---------------------
                                    Active property flags
                                    ---------------------
   (+) Dipole Moment


------------------------------------------------------------------------------
                       ORCA ELECTRIC PROPERTIES CALCULATION
------------------------------------------------------------------------------

Dipole Moment Calculation                       ... on
Quadrupole Moment Calculation                   ... off
Polarizability Calculation                      ... off
GBWName                                         ... 125.gbw
Electron density file                           ... 125.scfp
The origin for moment calculation is the CENTER OF MASS  = ( 1.968616,  0.309458 -0.005289)

-------------
DIPOLE MOMENT
-------------
                                X             Y             Z
Electronic contribution:      3.85855      -0.14602      -0.03060
Nuclear contribution   :     -5.38329       1.10078       0.02957
                        -----------------------------------------
Total Dipole Moment    :     -1.52474       0.95476      -0.00104
                        -----------------------------------------
Magnitude (a.u.)       :      1.79900
Magnitude (Debye)      :      4.57269



--------------------
Rotational spectrum 
--------------------
 
Rotational constants in cm-1:     0.253463     0.073830     0.057176 
Rotational constants in MHz :  7598.615767  2213.361097  1714.083710 

 Dipole components along the rotational axes: 
x,y,z [a.u.] :     0.954764    -1.524736    -0.001037 
x,y,z [Debye]:     2.426817    -3.875572    -0.002636 

 

Timings for individual modules:

Sum of individual times         ...        2.636 sec (=   0.044 min)
GTO integral calculation        ...        0.573 sec (=   0.010 min)  21.8 %
SCF iterations                  ...        2.062 sec (=   0.034 min)  78.2 %
                             ****ORCA TERMINATED NORMALLY****
TOTAL RUN TIME: 0 days 0 hours 0 minutes 3 seconds 116 msec
