
                                 *****************
                                 * O   R   C   A *
                                 *****************

           --- An Ab Initio, DFT and Semiempirical electronic structure package ---

                  #######################################################
                  #                        -***-                        #
                  #          Department of theory and spectroscopy      #
                  #               Directorship: Frank Neese             #
                  #        Max Planck Institute fuer Kohlenforschung    #
                  #                Kaiser Wilhelm Platz 1               #
                  #                 D-45470 Muelheim/Ruhr               #
                  #                      Germany                        #
                  #                                                     #
                  #                  All rights reserved                #
                  #                        -***-                        #
                  #######################################################


                         Program Version 4.2.0 -  RELEASE  -


 With contributions from (in alphabetic order):
   Daniel Aravena         : Magnetic Suceptibility
   Michael Atanasov       : Ab Initio Ligand Field Theory (pilot matlab implementation)
   Alexander A. Auer      : GIAO ZORA, VPT2
   Ute Becker             : Parallelization
   Giovanni Bistoni       : ED, misc. LED, open-shell LED, HFLED
   Martin Brehm           : Molecular dynamics
   Dmytro Bykov           : SCF Hessian
   Vijay G. Chilkuri      : MRCI spin determinant printing, contributions to CSF-ICE
   Dipayan Datta          : RHF DLPNO-CCSD density
   Achintya Kumar Dutta   : EOM-CC, STEOM-CC
   Dmitry Ganyushin       : Spin-Orbit,Spin-Spin,Magnetic field MRCI
   Miquel Garcia          : C-PCM Hessian, Gaussian charge scheme
   Yang Guo               : DLPNO-NEVPT2, CIM, IAO-localization
   Andreas Hansen         : Spin unrestricted coupled pair/coupled cluster methods
   Benjamin Helmich-Paris : CASSCF linear response (MC-RPA)
   Lee Huntington         : MR-EOM, pCC
   Robert Izsak           : Overlap fitted RIJCOSX, COSX-SCS-MP3, EOM
   Christian Kollmar      : KDIIS, OOCD, Brueckner-CCSD(T), CCSD density
   Simone Kossmann        : Meta GGA functionals, TD-DFT gradient, OOMP2, MP2 Hessian
   Martin Krupicka        : AUTO-CI
   Lucas Lang             : DCDCAS
   Dagmar Lenk            : GEPOL surface, SMD
   Dimitrios Liakos       : Extrapolation schemes; Compound Job, initial MDCI parallelization
   Dimitrios Manganas     : Further ROCIS development; embedding schemes
   Dimitrios Pantazis     : SARC Basis sets
   Taras Petrenko         : DFT Hessian,TD-DFT gradient, ASA, ECA, R-Raman, ABS, FL, XAS/XES, NRVS
   Peter Pinski           : DLPNO-MP2, DLPNO-MP2 Gradient
   Christoph Reimann      : Effective Core Potentials
   Marius Retegan         : Local ZFS, SOC
   Christoph Riplinger    : Optimizer, TS searches, QM/MM, DLPNO-CCSD(T), (RO)-DLPNO pert. Triples
   Tobias Risthaus        : Range-separated hybrids, TD-DFT gradient, RPA, STAB
   Michael Roemelt        : Original ROCIS implementation
   Masaaki Saitow         : Open-shell DLPNO-CCSD energy and density
   Barbara Sandhoefer     : DKH picture change effects
   Avijit Sen             : IP-ROCIS
   Kantharuban Sivalingam : CASSCF convergence, NEVPT2, FIC-MRCI
   Bernardo de Souza      : ESD, SOC TD-DFT
   Georgi Stoychev        : AutoAux, RI-MP2 NMR
   Willem Van den Heuvel  : Paramagnetic NMR
   Boris Wezisla          : Elementary symmetry handling
   Frank Wennmohs         : Technical directorship


 We gratefully acknowledge several colleagues who have allowed us to
 interface, adapt or use parts of their codes:
   Stefan Grimme, W. Hujo, H. Kruse,             : VdW corrections, initial TS optimization,
                  C. Bannwarth                     DFT functionals, gCP, sTDA/sTD-DF
   Ed Valeev, F. Pavosevic, A. Kumar             : LibInt (2-el integral package), F12 methods
   Garnet Chan, S. Sharma, J. Yang, R. Olivares  : DMRG
   Ulf Ekstrom                                   : XCFun DFT Library
   Mihaly Kallay                                 : mrcc  (arbitrary order and MRCC methods)
   Andreas Klamt, Michael Diedenhofen            : otool_cosmo (COSMO solvation model)
   Jiri Pittner, Ondrej Demel                    : Mk-CCSD
   Frank Weinhold                                : gennbo (NPA and NBO analysis)
   Christopher J. Cramer and Donald G. Truhlar   : smd solvation model
   Lars Goerigk                                  : TD-DFT with DH, B97 family of functionals
   V. Asgeirsson, H. Jonsson                     : NEB implementation
   FAccTs GmbH                                   : IRC, NEB, NEB-TS, Multilevel, MM, QM/MM, CI optimization
   S Lehtola, MJT Oliveira, MAL Marques          : LibXC Library


 Your calculation uses the libint2 library for the computation of 2-el integrals
 For citations please refer to: http://libint.valeyev.net

 Your ORCA version has been built with support for libXC version: 4.2.3
 For citations please refer to: https://tddft.org/programs/libxc/

 This ORCA versions uses:
   CBLAS   interface :  Fast vector & matrix operations
   LAPACKE interface :  Fast linear algebra routines
   SCALAPACK package :  Parallel linear algebra routines


Your calculation utilizes the atom-pairwise dispersion correction
with the Becke-Johnson damping scheme (D3BJ)
Cite in your paper:
S.Grimme, S.Ehrlich, L.Goerigk, J Comput Chem, (2011), 32, 1456–1465 
S.Grimme, J.Antony, S.Ehrlich and H.Krieg, J.Chem.Phys., 132, (2010), 154104 
   

----- Orbital basis set information -----
Your calculation utilizes the basis: def2-TZVPPD
   F. Weigend and R. Ahlrichs, Phys. Chem. Chem. Phys. 7, 3297 (2005).
   D. Rappoport and F. Furche, J. Chem. Phys. 133 134105 (2010).

----- AuxJ basis set information -----
Your calculation utilizes the auxiliary basis: def2/J
   F. Weigend, Phys. Chem. Chem. Phys. 8, 1057 (2006).

================================================================================
                                        WARNINGS
                       Please study these warnings very carefully!
================================================================================


INFO   : the flag for use of LIBINT has been found!

================================================================================
                                       INPUT FILE
================================================================================
NAME = 170_c.in
|  1> #
|  2> # 170_c TPSS-D3BJ/Def2-TZVPPD
|  3> #
|  4> ! tpss d3bj def2-tzvppd def2/j grid4 nofinalgrid
|  5> 
|  6> *xyz 0 1
|  7> C          0.00000        0.00000        0.00000
|  8> H          0.63307        0.63307       -0.63307
|  9> H         -0.63307       -0.63307       -0.63307
| 10> H          0.63307       -0.63307        0.63307
| 11> H         -0.63307        0.63307        0.63307
| 12> *
| 13> 
| 14> %maxcore 5000
| 15> 
| 16> %pal
| 17> nprocs = 24
| 18> end
| 19> 
| 20> 
| 21>                          ****END OF INPUT****
================================================================================

                       ****************************
                       * Single Point Calculation *
                       ****************************

---------------------------------
CARTESIAN COORDINATES (ANGSTROEM)
---------------------------------
  C      0.000000    0.000000    0.000000
  H      0.633070    0.633070   -0.633070
  H     -0.633070   -0.633070   -0.633070
  H      0.633070   -0.633070    0.633070
  H     -0.633070    0.633070    0.633070

----------------------------
CARTESIAN COORDINATES (A.U.)
----------------------------
  NO LB      ZA    FRAG     MASS         X           Y           Z
   0 C     6.0000    0    12.011    0.000000    0.000000    0.000000
   1 H     1.0000    0     1.008    1.196329    1.196329   -1.196329
   2 H     1.0000    0     1.008   -1.196329   -1.196329   -1.196329
   3 H     1.0000    0     1.008    1.196329   -1.196329    1.196329
   4 H     1.0000    0     1.008   -1.196329    1.196329    1.196329

--------------------------------
INTERNAL COORDINATES (ANGSTROEM)
--------------------------------
 C      0   0   0     0.000000000000     0.00000000     0.00000000
 H      1   0   0     1.096509404748     0.00000000     0.00000000
 H      1   2   0     1.096509404748   109.47122063     0.00000000
 H      1   2   3     1.096509404748   109.47122063   120.00000000
 H      1   2   3     1.096509404748   109.47122063   240.00000000

---------------------------
INTERNAL COORDINATES (A.U.)
---------------------------
 C      0   0   0     0.000000000000     0.00000000     0.00000000
 H      1   0   0     2.072102478242     0.00000000     0.00000000
 H      1   2   0     2.072102478242   109.47122063     0.00000000
 H      1   2   3     2.072102478242   109.47122063   120.00000000
 H      1   2   3     2.072102478242   109.47122063   240.00000000

---------------------
BASIS SET INFORMATION
---------------------
There are 2 groups of distinct atoms

 Group   1 Type C   : 12s6p3d1f contracted to 6s3p3d1f pattern {621111/411/111/1}
 Group   2 Type H   : 5s3p1d contracted to 3s3p1d pattern {311/111/1}

Atom   0C    basis set group =>   1
Atom   1H    basis set group =>   2
Atom   2H    basis set group =>   2
Atom   3H    basis set group =>   2
Atom   4H    basis set group =>   2
---------------------------------
AUXILIARY/J BASIS SET INFORMATION
---------------------------------
There are 2 groups of distinct atoms

 Group   1 Type C   : 12s5p4d2f1g contracted to 6s4p3d1f1g pattern {711111/2111/211/2/1}
 Group   2 Type H   : 5s2p1d contracted to 3s1p1d pattern {311/2/1}

Atom   0C    basis set group =>   1
Atom   1H    basis set group =>   2
Atom   2H    basis set group =>   2
Atom   3H    basis set group =>   2
Atom   4H    basis set group =>   2


           ************************************************************
           *        Program running with 24 parallel MPI-processes    *
           *              working on a common directory               *
           ************************************************************
------------------------------------------------------------------------------
                           ORCA GTO INTEGRAL CALCULATION
                           -- RI-GTO INTEGRALS CHOSEN --
------------------------------------------------------------------------------

                         BASIS SET STATISTICS AND STARTUP INFO

Gaussian basis set:
 # of primitive gaussian shells          ...   58
 # of primitive gaussian functions       ...  128
 # of contracted shells                  ...   41
 # of contracted basis functions         ...  105
 Highest angular momentum                ...    3
 Maximum contraction depth               ...    6
Auxiliary gaussian basis set:
 # of primitive gaussian shells          ...   56
 # of primitive gaussian functions       ...  134
 # of contracted shells                  ...   35
 # of contracted aux-basis functions     ...   93
 Highest angular momentum                ...    4
 Maximum contraction depth               ...    7
Ratio of auxiliary to basis functions    ...  0.89
Integral package used                  ... LIBINT
 One Electron integrals                  ... done
 Ordering auxiliary basis shells         ... done
 Integral threshhold             Thresh  ...  1.000e-10
 Primitive cut-off               TCut    ...  1.000e-11
 Pre-screening matrix                    ... done
 Shell pair data                         ... 
 Ordering of the shell pairs             ... done (   0.000 sec) 861 of 861 pairs
 Determination of significant pairs      ... done (   0.000 sec)
 Creation of shell pair data             ... done (   0.000 sec)
 Storage of shell pair data              ... done (   0.004 sec)
 Shell pair data done in (   0.005 sec)
 Computing two index integrals           ... done
 Cholesky decomposition of the V-matrix  ... done


Timings:
 Total evaluation time                   ...   0.208 sec (  0.003 min)
 One electron matrix time                ...   0.040 sec (  0.001 min) = 19.3%
 Schwartz matrix evaluation time         ...   0.140 sec (  0.002 min) = 67.3%
 Two index repulsion integral time       ...   0.000 sec (  0.000 min) =  0.2%
 Cholesky decomposition of V             ...   0.001 sec (  0.000 min) =  0.3%
 Three index repulsion integral time     ...   0.000 sec (  0.000 min) =  0.0%



           ************************************************************
           *        Program running with 24 parallel MPI-processes    *
           *              working on a common directory               *
           ************************************************************
-------------------------------------------------------------------------------
                                 ORCA SCF
-------------------------------------------------------------------------------

------------
SCF SETTINGS
------------
Hamiltonian:
 Density Functional     Method          .... DFT(GTOs)
 Exchange Functional    Exchange        .... TPSS
 Correlation Functional Correlation     .... TPSS
 LDA part of GGA corr.  LDAOpt          .... PW91-LDA
 Gradients option       PostSCFGGA      .... off
   Density functional embedding theory  .... OFF
   NL short-range parameter             ....  5.000000
 RI-approximation to the Coulomb term is turned on
   Number of auxiliary basis functions  .... 93


General Settings:
 Integral files         IntName         .... 170_c
 Hartree-Fock type      HFTyp           .... RHF
 Total Charge           Charge          ....    0
 Multiplicity           Mult            ....    1
 Number of Electrons    NEL             ....   10
 Basis Dimension        Dim             ....  105
 Nuclear Repulsion      ENuc            ....     13.3556302860 Eh

Convergence Acceleration:
 DIIS                   CNVDIIS         .... on
   Start iteration      DIISMaxIt       ....    12
   Startup error        DIISStart       ....  0.200000
   # of expansion vecs  DIISMaxEq       ....     5
   Bias factor          DIISBfac        ....   1.050
   Max. coefficient     DIISMaxC        ....  10.000
 Newton-Raphson         CNVNR           .... off
 SOSCF                  CNVSOSCF        .... on
   Start iteration      SOSCFMaxIt      ....   150
   Startup grad/error   SOSCFStart      ....  0.003300
 Level Shifting         CNVShift        .... on
   Level shift para.    LevelShift      ....    0.2500
   Turn off err/grad.   ShiftErr        ....    0.0010
 Zerner damping         CNVZerner       .... off
 Static damping         CNVDamp         .... on
   Fraction old density DampFac         ....    0.7000
   Max. Damping (<1)    DampMax         ....    0.9800
   Min. Damping (>=0)   DampMin         ....    0.0000
   Turn off err/grad.   DampErr         ....    0.1000
 Fernandez-Rico         CNVRico         .... off

SCF Procedure:
 Maximum # iterations   MaxIter         ....   125
 SCF integral mode      SCFMode         .... Direct
   Integral package                     .... LIBINT
 Reset frequency        DirectResetFreq ....    20
 Integral Threshold     Thresh          ....  1.000e-10 Eh
 Primitive CutOff       TCut            ....  1.000e-11 Eh

Convergence Tolerance:
 Convergence Check Mode ConvCheckMode   .... Total+1el-Energy
 Convergence forced     ConvForced      .... 0
 Energy Change          TolE            ....  1.000e-06 Eh
 1-El. energy change                    ....  1.000e-03 Eh
 Orbital Gradient       TolG            ....  5.000e-05
 Orbital Rotation angle TolX            ....  5.000e-05
 DIIS Error             TolErr          ....  1.000e-06


Diagonalization of the overlap matrix:
Smallest eigenvalue                        ... 3.157e-05
Time for diagonalization                   ...    0.002 sec
Threshold for overlap eigenvalues          ... 1.000e-08
Number of eigenvalues below threshold      ... 0
Time for construction of square roots      ...    0.001 sec
Total time needed                          ...    0.004 sec

-------------------
DFT GRID GENERATION
-------------------

General Integration Accuracy     IntAcc      ...  4.670
Radial Grid Type                 RadialGrid  ... Gauss-Chebyshev
Angular Grid (max. acc.)         AngularGrid ... Lebedev-302
Angular grid pruning method      GridPruning ... 3 (G Style)
Weight generation scheme         WeightScheme... Becke
Basis function cutoff            BFCut       ...    1.0000e-10
Integration weight cutoff        WCut        ...    1.0000e-14
Grids for H and He will be reduced by one unit

# of grid points (after initial pruning)     ...  19788 (   0.0 sec)
# of grid points (after weights+screening)   ...  19280 (   0.0 sec)
nearest neighbour list constructed           ...    0.0 sec
Grid point re-assignment to atoms done       ...    0.0 sec
Grid point division into batches done        ...    0.1 sec
Reduced shell lists constructed in    0.1 sec

Total number of grid points                  ...    19280
Total number of batches                      ...      304
Average number of points per batch           ...       63
Average number of grid points per atom       ...     3856
Average number of shells per batch           ...    37.79 (92.16%)
Average number of basis functions per batch  ...    97.21 (92.59%)
Average number of large shells per batch     ...    37.21 (98.49%)
Average number of large basis fcns per batch ...    96.07 (98.82%)
Maximum spatial batch extension              ...   1.25,  1.25,  1.25 au
Average spatial batch extension              ...   0.05,  0.05,  0.04 au

Time for grid setup =    0.141 sec

------------------------------
INITIAL GUESS: MODEL POTENTIAL
------------------------------
Loading Hartree-Fock densities                     ... done
Calculating cut-offs                               ... done
Setting up the integral package                    ... done
Initializing the effective Hamiltonian             ... done
Starting the Coulomb interaction                   ... done (   0.0 sec)
Reading the grid                                   ... done
Mapping shells                                     ... done
Starting the XC term evaluation                    ... done (   0.0 sec)
  promolecular density results
     # of electrons  =      9.998043414
     EX              =     -6.263246934
     EC              =     -0.294091597
     EX+EC           =     -6.557338531
Transforming the Hamiltonian                       ... done (   0.0 sec)
Diagonalizing the Hamiltonian                      ... done (   0.0 sec)
Back transforming the eigenvectors                 ... done (   0.0 sec)
Now organizing SCF variables                       ... done
                      ------------------
                      INITIAL GUESS DONE (   0.3 sec)
                      ------------------
--------------
SCF ITERATIONS
--------------
ITER       Energy         Delta-E        Max-DP      RMS-DP      [F,P]     Damp
               ***  Starting incremental Fock matrix formation  ***
  0    -40.4642295040   0.000000000000 0.03972924  0.00112175  0.2157317 0.7000
  1    -40.5026636556  -0.038434151613 0.02405577  0.00082655  0.1038604 0.7000
                               ***Turning on DIIS***
  2    -40.5164410307  -0.013777375134 0.06480182  0.00162268  0.0301616 0.0000
  3    -40.5338619993  -0.017420968602 0.01635554  0.00053919  0.0676700 0.0000
  4    -40.5411036419  -0.007241642512 0.00347611  0.00015198  0.0165690 0.0000
  5    -40.5415830308  -0.000479388905 0.00126570  0.00004928  0.0039590 0.0000
                      *** Initiating the SOSCF procedure ***
                           *** Shutting down DIIS ***
                      *** Re-Reading the Fockian *** 
                      *** Removing any level shift *** 
ITER      Energy       Delta-E        Grad      Rot      Max-DP    RMS-DP
  6    -40.54161544  -0.0000324102  0.000343  0.000343  0.000669  0.000038
               *** Restarting incremental Fock matrix formation ***
  7    -40.54161818  -0.0000027352  0.000038  0.000076  0.000132  0.000004
  8    -40.54161816   0.0000000186  0.000048  0.000045  0.000055  0.000002
                 **** Energy Check signals convergence ****
              ***Rediagonalizing the Fockian in SOSCF/NRSCF***

               *****************************************************
               *                     SUCCESS                       *
               *           SCF CONVERGED AFTER   9 CYCLES          *
               *****************************************************


----------------
TOTAL SCF ENERGY
----------------

Total Energy       :          -40.54161821 Eh           -1103.19352 eV

Components:
Nuclear Repulsion  :           13.35563029 Eh             363.42518 eV
Electronic Energy  :          -53.89724849 Eh           -1466.61869 eV
One Electron Energy:          -79.69606656 Eh           -2168.64022 eV
Two Electron Energy:           25.79881806 Eh             702.02153 eV

Virial components:
Potential Energy   :          -80.80677579 Eh           -2198.86416 eV
Kinetic Energy     :           40.26515759 Eh            1095.67064 eV
Virial Ratio       :            2.00686600


DFT components:
N(Alpha)           :        5.000049193184 electrons
N(Beta)            :        5.000049193184 electrons
N(Total)           :       10.000098386368 electrons
E(X)               :       -6.613377513488 Eh       
E(C)               :       -0.299763505257 Eh       
E(XC)              :       -6.913141018745 Eh       
DFET-embed. en.    :        0.000000000000 Eh       

---------------
SCF CONVERGENCE
---------------

  Last Energy change         ...   -5.0156e-08  Tolerance :   1.0000e-06
  Last MAX-Density change    ...    2.5076e-06  Tolerance :   1.0000e-05
  Last RMS-Density change    ...    1.0735e-07  Tolerance :   1.0000e-06
  Last Orbital Gradient      ...    1.1040e-06  Tolerance :   5.0000e-05
  Last Orbital Rotation      ...    7.5385e-07  Tolerance :   5.0000e-05

             **** THE GBW FILE WAS UPDATED (170_c.gbw) ****
             **** DENSITY FILE WAS UPDATED (170_c.scfp) ****
             **** ENERGY FILE WAS UPDATED (170_c.en.tmp) ****
             **** THE GBW FILE WAS UPDATED (170_c.gbw) ****
             **** DENSITY FILE WAS UPDATED (170_c.scfp) ****
----------------
ORBITAL ENERGIES
----------------

  NO   OCC          E(Eh)            E(eV) 
   0   2.0000      -9.972811      -271.3740 
   1   2.0000      -0.641230       -17.4487 
   2   2.0000      -0.353449        -9.6178 
   3   2.0000      -0.353449        -9.6178 
   4   2.0000      -0.353449        -9.6178 
   5   0.0000       0.004913         0.1337 
   6   0.0000       0.086011         2.3405 
   7   0.0000       0.086011         2.3405 
   8   0.0000       0.086011         2.3405 
   9   0.0000       0.110128         2.9967 
  10   0.0000       0.110128         2.9967 
  11   0.0000       0.110128         2.9967 
  12   0.0000       0.149713         4.0739 
  13   0.0000       0.149713         4.0739 
  14   0.0000       0.211211         5.7473 
  15   0.0000       0.259863         7.0712 
  16   0.0000       0.272801         7.4233 
  17   0.0000       0.272802         7.4233 
  18   0.0000       0.272803         7.4233 
  19   0.0000       0.289354         7.8737 
  20   0.0000       0.289354         7.8737 
  21   0.0000       0.289354         7.8737 
  22   0.0000       0.311912         8.4876 
  23   0.0000       0.311912         8.4876 
  24   0.0000       0.311912         8.4876 
  25   0.0000       0.405544        11.0354 
  26   0.0000       0.405544        11.0354 
  27   0.0000       0.467331        12.7167 
  28   0.0000       0.467331        12.7167 
  29   0.0000       0.467331        12.7167 
  30   0.0000       0.577587        15.7169 
  31   0.0000       0.677543        18.4369 
  32   0.0000       0.685957        18.6658 
  33   0.0000       0.685959        18.6659 
  34   0.0000       0.685960        18.6659 
  35   0.0000       0.768021        20.8989 
  36   0.0000       0.768021        20.8989 
  37   0.0000       1.001189        27.2437 
  38   0.0000       1.001189        27.2437 
  39   0.0000       1.001189        27.2437 
  40   0.0000       1.015150        27.6236 
  41   0.0000       1.015150        27.6236 
  42   0.0000       1.015151        27.6236 
  43   0.0000       1.189075        32.3564 
  44   0.0000       1.189075        32.3564 
  45   0.0000       1.189075        32.3564 
  46   0.0000       1.450141        39.4603 
  47   0.0000       1.463522        39.8245 
  48   0.0000       1.463522        39.8245 
  49   0.0000       1.560519        42.4639 
  50   0.0000       1.560519        42.4639 
  51   0.0000       1.560520        42.4639 
  52   0.0000       1.744874        47.4804 
  53   0.0000       1.902200        51.7615 
  54   0.0000       1.902200        51.7615 
  55   0.0000       1.902200        51.7615 
  56   0.0000       2.717976        73.9599 
  57   0.0000       2.717976        73.9599 
  58   0.0000       2.717976        73.9599 
  59   0.0000       2.743999        74.6680 
  60   0.0000       2.899058        78.8874 
  61   0.0000       2.899058        78.8874 
  62   0.0000       2.899058        78.8874 
  63   0.0000       2.943449        80.0953 
  64   0.0000       2.943449        80.0953 
  65   0.0000       2.943449        80.0953 
  66   0.0000       2.967818        80.7584 
  67   0.0000       2.967818        80.7584 
  68   0.0000       3.380864        91.9980 
  69   0.0000       3.380864        91.9980 
  70   0.0000       3.380864        91.9980 
  71   0.0000       3.480924        94.7207 
  72   0.0000       3.480924        94.7207 
  73   0.0000       3.480924        94.7207 
  74   0.0000       3.516358        95.6850 
  75   0.0000       3.516358        95.6850 
  76   0.0000       3.767096       102.5079 
  77   0.0000       4.007924       109.0612 
  78   0.0000       4.007924       109.0612 
  79   0.0000       4.064393       110.5978 
  80   0.0000       4.064393       110.5978 
  81   0.0000       4.064393       110.5978 
  82   0.0000       4.172860       113.5493 
  83   0.0000       4.172860       113.5493 
  84   0.0000       4.172860       113.5493 
  85   0.0000       4.281992       116.5189 
  86   0.0000       4.281992       116.5189 
  87   0.0000       4.281992       116.5189 
  88   0.0000       4.631060       126.0175 
  89   0.0000       4.631060       126.0175 
  90   0.0000       4.631060       126.0175 
  91   0.0000       5.119586       139.3110 
  92   0.0000       5.223002       142.1251 
  93   0.0000       5.235656       142.4695 
  94   0.0000       5.235656       142.4695 
  95   0.0000       5.235656       142.4695 
  96   0.0000       5.382865       146.4752 
  97   0.0000       5.382865       146.4752 
  98   0.0000       5.457114       148.4956 
  99   0.0000       5.457114       148.4956 
 100   0.0000       5.457114       148.4956 
 101   0.0000       5.677543       154.4938 
 102   0.0000       5.677543       154.4938 
 103   0.0000       5.677543       154.4938 
 104   0.0000      23.731929       645.7786 

                    ********************************
                    * MULLIKEN POPULATION ANALYSIS *
                    ********************************

-----------------------
MULLIKEN ATOMIC CHARGES
-----------------------
   0 C :   -0.351997
   1 H :    0.088000
   2 H :    0.087999
   3 H :    0.087998
   4 H :    0.088000
Sum of atomic charges:    0.0000000

--------------------------------
MULLIKEN REDUCED ORBITAL CHARGES
--------------------------------
  0 C s       :     3.125569  s :     3.125569
      pz      :     1.059852  p :     3.179556
      px      :     1.059852
      py      :     1.059852
      dz2     :     0.000000  d :     0.045026
      dxz     :     0.015009
      dyz     :     0.015009
      dx2y2   :     0.000000
      dxy     :     0.015009
      f0      :     0.000334  f :     0.001846
      f+1     :     0.000125
      f-1     :     0.000125
      f+2     :    -0.000000
      f-2     :     0.000843
      f+3     :     0.000209
      f-3     :     0.000209
  1 H s       :     0.854647  s :     0.854647
      pz      :     0.018682  p :     0.056046
      px      :     0.018682
      py      :     0.018682
      dz2     :     0.000313  d :     0.001307
      dxz     :     0.000227
      dyz     :     0.000227
      dx2y2   :     0.000313
      dxy     :     0.000227
  2 H s       :     0.854647  s :     0.854647
      pz      :     0.018682  p :     0.056046
      px      :     0.018682
      py      :     0.018682
      dz2     :     0.000313  d :     0.001307
      dxz     :     0.000227
      dyz     :     0.000227
      dx2y2   :     0.000313
      dxy     :     0.000227
  3 H s       :     0.854649  s :     0.854649
      pz      :     0.018682  p :     0.056046
      px      :     0.018682
      py      :     0.018682
      dz2     :     0.000313  d :     0.001307
      dxz     :     0.000227
      dyz     :     0.000227
      dx2y2   :     0.000313
      dxy     :     0.000227
  4 H s       :     0.854647  s :     0.854647
      pz      :     0.018682  p :     0.056046
      px      :     0.018682
      py      :     0.018682
      dz2     :     0.000313  d :     0.001307
      dxz     :     0.000227
      dyz     :     0.000227
      dx2y2   :     0.000313
      dxy     :     0.000227


                     *******************************
                     * LOEWDIN POPULATION ANALYSIS *
                     *******************************

----------------------
LOEWDIN ATOMIC CHARGES
----------------------
   0 C :    0.259796
   1 H :   -0.064949
   2 H :   -0.064949
   3 H :   -0.064949
   4 H :   -0.064949

-------------------------------
LOEWDIN REDUCED ORBITAL CHARGES
-------------------------------
  0 C s       :     2.677534  s :     2.677534
      pz      :     0.940075  p :     2.820226
      px      :     0.940075
      py      :     0.940075
      dz2     :     0.000000  d :     0.221951
      dxz     :     0.073984
      dyz     :     0.073984
      dx2y2   :     0.000000
      dxy     :     0.073984
      f0      :     0.004744  f :     0.020493
      f+1     :     0.001779
      f-1     :     0.001779
      f+2     :     0.000000
      f-2     :     0.006262
      f+3     :     0.002965
      f-3     :     0.002965
  1 H s       :     0.732007  s :     0.732007
      pz      :     0.101606  p :     0.304818
      px      :     0.101606
      py      :     0.101606
      dz2     :     0.005750  d :     0.028124
      dxz     :     0.005541
      dyz     :     0.005541
      dx2y2   :     0.005750
      dxy     :     0.005541
  2 H s       :     0.732007  s :     0.732007
      pz      :     0.101606  p :     0.304818
      px      :     0.101606
      py      :     0.101606
      dz2     :     0.005750  d :     0.028124
      dxz     :     0.005541
      dyz     :     0.005541
      dx2y2   :     0.005750
      dxy     :     0.005541
  3 H s       :     0.732007  s :     0.732007
      pz      :     0.101606  p :     0.304818
      px      :     0.101606
      py      :     0.101606
      dz2     :     0.005750  d :     0.028124
      dxz     :     0.005541
      dyz     :     0.005541
      dx2y2   :     0.005750
      dxy     :     0.005541
  4 H s       :     0.732007  s :     0.732007
      pz      :     0.101606  p :     0.304818
      px      :     0.101606
      py      :     0.101606
      dz2     :     0.005750  d :     0.028124
      dxz     :     0.005541
      dyz     :     0.005541
      dx2y2   :     0.005750
      dxy     :     0.005541


                      *****************************
                      * MAYER POPULATION ANALYSIS *
                      *****************************

  NA   - Mulliken gross atomic population
  ZA   - Total nuclear charge
  QA   - Mulliken gross atomic charge
  VA   - Mayer's total valence
  BVA  - Mayer's bonded valence
  FA   - Mayer's free valence

  ATOM       NA         ZA         QA         VA         BVA        FA
  0 C      6.3520     6.0000    -0.3520     3.9548     3.9548     0.0000
  1 H      0.9120     1.0000     0.0880     1.0631     1.0631    -0.0000
  2 H      0.9120     1.0000     0.0880     1.0631     1.0631     0.0000
  3 H      0.9120     1.0000     0.0880     1.0631     1.0631     0.0000
  4 H      0.9120     1.0000     0.0880     1.0631     1.0631     0.0000

  Mayer bond orders larger than 0.100000
B(  0-C ,  1-H ) :   0.9887 B(  0-C ,  2-H ) :   0.9887 B(  0-C ,  3-H ) :   0.9887 
B(  0-C ,  4-H ) :   0.9887 

-------
TIMINGS
-------

Total SCF time: 0 days 0 hours 0 min 1 sec 

Total time                  ....       1.377 sec
Sum of individual times     ....       1.275 sec  ( 92.6%)

Fock matrix formation       ....       0.989 sec  ( 71.9%)
  Split-RI-J                ....       0.765 sec  ( 77.3% of F)
  XC integration            ....       0.188 sec  ( 19.0% of F)
    Basis function eval.    ....       0.021 sec  ( 11.4% of XC)
    Density eval.           ....       0.029 sec  ( 15.4% of XC)
    XC-Functional eval.     ....       0.016 sec  (  8.4% of XC)
    XC-Potential eval.      ....       0.072 sec  ( 38.1% of XC)
Diagonalization             ....       0.011 sec  (  0.8%)
Density matrix formation    ....       0.003 sec  (  0.2%)
Population analysis         ....       0.003 sec  (  0.2%)
Initial guess               ....       0.121 sec  (  8.8%)
Orbital Transformation      ....       0.000 sec  (  0.0%)
Orbital Orthonormalization  ....       0.000 sec  (  0.0%)
DIIS solution               ....       0.004 sec  (  0.3%)
SOSCF solution              ....       0.002 sec  (  0.2%)
Grid generation             ....       0.141 sec  ( 10.3%)


-------------------------------------------------------------------------------
                          DFT DISPERSION CORRECTION                            
                                                                               
                              DFTD3 V3.1  Rev 1                                
                          USING Becke-Johnson damping                          
-------------------------------------------------------------------------------
The TPSS functional is recognized
Active option DFTDOPT                   ...         4   

molecular C6(AA) [au] = 127.682272 


            DFT-D V3
 parameters
 s6 scaling factor         :     1.0000 
 a1 scaling factor         :     0.4535 
 s8 scaling factor         :     1.9435 
 a2 scaling factor         :     4.4752 
 ad hoc parameters k1-k3   :    16.0000     1.3333    -4.0000 

 Edisp/kcal,au: -0.876045955258  -0.001396067945 
 E6   /kcal   :  -0.493805361 
 E8   /kcal   :  -0.382240594 
 % E8         :  43.632482057 

-------------------------   ----------------
Dispersion correction           -0.001396068
-------------------------   ----------------


-------------------------   --------------------
FINAL SINGLE POINT ENERGY       -40.543014275656
-------------------------   --------------------


                            ***************************************
                            *     ORCA property calculations      *
                            ***************************************

                                    ---------------------
                                    Active property flags
                                    ---------------------
   (+) Dipole Moment


------------------------------------------------------------------------------
                       ORCA ELECTRIC PROPERTIES CALCULATION
------------------------------------------------------------------------------

Dipole Moment Calculation                       ... on
Quadrupole Moment Calculation                   ... off
Polarizability Calculation                      ... off
GBWName                                         ... 170_c.gbw
Electron density file                           ... 170_c.scfp
The origin for moment calculation is the CENTER OF MASS  = ( 0.000000,  0.000000  0.000000)

-------------
DIPOLE MOMENT
-------------
                                X             Y             Z
Electronic contribution:      0.00000      -0.00000       0.00000
Nuclear contribution   :      0.00000       0.00000       0.00000
                        -----------------------------------------
Total Dipole Moment    :      0.00000      -0.00000       0.00000
                        -----------------------------------------
Magnitude (a.u.)       :      0.00000
Magnitude (Debye)      :      0.00000



--------------------
Rotational spectrum 
--------------------
 
Rotational constants in cm-1:     5.216064     5.216064     5.216064 
Rotational constants in MHz : 156373.665933 156373.665933 156373.665933 

 Dipole components along the rotational axes: 
x,y,z [a.u.] :     0.000000    -0.000000     0.000000 
x,y,z [Debye]:     0.000000    -0.000000     0.000000 

 

Timings for individual modules:

Sum of individual times         ...        2.463 sec (=   0.041 min)
GTO integral calculation        ...        0.655 sec (=   0.011 min)  26.6 %
SCF iterations                  ...        1.807 sec (=   0.030 min)  73.4 %
                             ****ORCA TERMINATED NORMALLY****
TOTAL RUN TIME: 0 days 0 hours 0 minutes 3 seconds 60 msec
