
                                 *****************
                                 * O   R   C   A *
                                 *****************

           --- An Ab Initio, DFT and Semiempirical electronic structure package ---

                  #######################################################
                  #                        -***-                        #
                  #          Department of theory and spectroscopy      #
                  #               Directorship: Frank Neese             #
                  #        Max Planck Institute fuer Kohlenforschung    #
                  #                Kaiser Wilhelm Platz 1               #
                  #                 D-45470 Muelheim/Ruhr               #
                  #                      Germany                        #
                  #                                                     #
                  #                  All rights reserved                #
                  #                        -***-                        #
                  #######################################################


                         Program Version 4.2.0 -  RELEASE  -


 With contributions from (in alphabetic order):
   Daniel Aravena         : Magnetic Suceptibility
   Michael Atanasov       : Ab Initio Ligand Field Theory (pilot matlab implementation)
   Alexander A. Auer      : GIAO ZORA, VPT2
   Ute Becker             : Parallelization
   Giovanni Bistoni       : ED, misc. LED, open-shell LED, HFLED
   Martin Brehm           : Molecular dynamics
   Dmytro Bykov           : SCF Hessian
   Vijay G. Chilkuri      : MRCI spin determinant printing, contributions to CSF-ICE
   Dipayan Datta          : RHF DLPNO-CCSD density
   Achintya Kumar Dutta   : EOM-CC, STEOM-CC
   Dmitry Ganyushin       : Spin-Orbit,Spin-Spin,Magnetic field MRCI
   Miquel Garcia          : C-PCM Hessian, Gaussian charge scheme
   Yang Guo               : DLPNO-NEVPT2, CIM, IAO-localization
   Andreas Hansen         : Spin unrestricted coupled pair/coupled cluster methods
   Benjamin Helmich-Paris : CASSCF linear response (MC-RPA)
   Lee Huntington         : MR-EOM, pCC
   Robert Izsak           : Overlap fitted RIJCOSX, COSX-SCS-MP3, EOM
   Christian Kollmar      : KDIIS, OOCD, Brueckner-CCSD(T), CCSD density
   Simone Kossmann        : Meta GGA functionals, TD-DFT gradient, OOMP2, MP2 Hessian
   Martin Krupicka        : AUTO-CI
   Lucas Lang             : DCDCAS
   Dagmar Lenk            : GEPOL surface, SMD
   Dimitrios Liakos       : Extrapolation schemes; Compound Job, initial MDCI parallelization
   Dimitrios Manganas     : Further ROCIS development; embedding schemes
   Dimitrios Pantazis     : SARC Basis sets
   Taras Petrenko         : DFT Hessian,TD-DFT gradient, ASA, ECA, R-Raman, ABS, FL, XAS/XES, NRVS
   Peter Pinski           : DLPNO-MP2, DLPNO-MP2 Gradient
   Christoph Reimann      : Effective Core Potentials
   Marius Retegan         : Local ZFS, SOC
   Christoph Riplinger    : Optimizer, TS searches, QM/MM, DLPNO-CCSD(T), (RO)-DLPNO pert. Triples
   Tobias Risthaus        : Range-separated hybrids, TD-DFT gradient, RPA, STAB
   Michael Roemelt        : Original ROCIS implementation
   Masaaki Saitow         : Open-shell DLPNO-CCSD energy and density
   Barbara Sandhoefer     : DKH picture change effects
   Avijit Sen             : IP-ROCIS
   Kantharuban Sivalingam : CASSCF convergence, NEVPT2, FIC-MRCI
   Bernardo de Souza      : ESD, SOC TD-DFT
   Georgi Stoychev        : AutoAux, RI-MP2 NMR
   Willem Van den Heuvel  : Paramagnetic NMR
   Boris Wezisla          : Elementary symmetry handling
   Frank Wennmohs         : Technical directorship


 We gratefully acknowledge several colleagues who have allowed us to
 interface, adapt or use parts of their codes:
   Stefan Grimme, W. Hujo, H. Kruse,             : VdW corrections, initial TS optimization,
                  C. Bannwarth                     DFT functionals, gCP, sTDA/sTD-DF
   Ed Valeev, F. Pavosevic, A. Kumar             : LibInt (2-el integral package), F12 methods
   Garnet Chan, S. Sharma, J. Yang, R. Olivares  : DMRG
   Ulf Ekstrom                                   : XCFun DFT Library
   Mihaly Kallay                                 : mrcc  (arbitrary order and MRCC methods)
   Andreas Klamt, Michael Diedenhofen            : otool_cosmo (COSMO solvation model)
   Jiri Pittner, Ondrej Demel                    : Mk-CCSD
   Frank Weinhold                                : gennbo (NPA and NBO analysis)
   Christopher J. Cramer and Donald G. Truhlar   : smd solvation model
   Lars Goerigk                                  : TD-DFT with DH, B97 family of functionals
   V. Asgeirsson, H. Jonsson                     : NEB implementation
   FAccTs GmbH                                   : IRC, NEB, NEB-TS, Multilevel, MM, QM/MM, CI optimization
   S Lehtola, MJT Oliveira, MAL Marques          : LibXC Library


 Your calculation uses the libint2 library for the computation of 2-el integrals
 For citations please refer to: http://libint.valeyev.net

 Your ORCA version has been built with support for libXC version: 4.2.3
 For citations please refer to: https://tddft.org/programs/libxc/

 This ORCA versions uses:
   CBLAS   interface :  Fast vector & matrix operations
   LAPACKE interface :  Fast linear algebra routines
   SCALAPACK package :  Parallel linear algebra routines


Your calculation utilizes the atom-pairwise dispersion correction
with the Becke-Johnson damping scheme (D3BJ)
Cite in your paper:
S.Grimme, S.Ehrlich, L.Goerigk, J Comput Chem, (2011), 32, 1456–1465 
S.Grimme, J.Antony, S.Ehrlich and H.Krieg, J.Chem.Phys., 132, (2010), 154104 
   

----- Orbital basis set information -----
Your calculation utilizes the basis: def2-TZVPPD
   F. Weigend and R. Ahlrichs, Phys. Chem. Chem. Phys. 7, 3297 (2005).
   D. Rappoport and F. Furche, J. Chem. Phys. 133 134105 (2010).

----- AuxJ basis set information -----
Your calculation utilizes the auxiliary basis: def2/J
   F. Weigend, Phys. Chem. Chem. Phys. 8, 1057 (2006).

================================================================================
                                        WARNINGS
                       Please study these warnings very carefully!
================================================================================


WARNING: your system is open-shell and RHF/RKS was chosen
  ===> : WILL SWITCH to UHF/UKS


INFO   : the flag for use of LIBINT has been found!

================================================================================
                                       INPUT FILE
================================================================================
NAME = 172_o.in
|  1> #
|  2> # 172_o TPSS-D3BJ/Def2-TZVPPD
|  3> #
|  4> ! tpss d3bj def2-tzvppd def2/j grid4 nofinalgrid
|  5> 
|  6> *xyz 0 3
|  7> O          0.00000        0.00000        0.61122
|  8> O          0.00000        0.00000       -0.61122
|  9> *
| 10> 
| 11> %maxcore 5000
| 12> 
| 13> %pal
| 14> nprocs = 24
| 15> end
| 16> 
| 17> 
| 18>                          ****END OF INPUT****
================================================================================

                       ****************************
                       * Single Point Calculation *
                       ****************************

---------------------------------
CARTESIAN COORDINATES (ANGSTROEM)
---------------------------------
  O      0.000000    0.000000    0.611220
  O      0.000000    0.000000   -0.611220

----------------------------
CARTESIAN COORDINATES (A.U.)
----------------------------
  NO LB      ZA    FRAG     MASS         X           Y           Z
   0 O     8.0000    0    15.999    0.000000    0.000000    1.155038
   1 O     8.0000    0    15.999    0.000000    0.000000   -1.155038

--------------------------------
INTERNAL COORDINATES (ANGSTROEM)
--------------------------------
 O      0   0   0     0.000000000000     0.00000000     0.00000000
 O      1   0   0     1.222440000000     0.00000000     0.00000000

---------------------------
INTERNAL COORDINATES (A.U.)
---------------------------
 O      0   0   0     0.000000000000     0.00000000     0.00000000
 O      1   0   0     2.310076815151     0.00000000     0.00000000

---------------------
BASIS SET INFORMATION
---------------------
There are 1 groups of distinct atoms

 Group   1 Type O   : 12s7p3d1f contracted to 6s4p3d1f pattern {621111/4111/111/1}

Atom   0O    basis set group =>   1
Atom   1O    basis set group =>   1
---------------------------------
AUXILIARY/J BASIS SET INFORMATION
---------------------------------
There are 1 groups of distinct atoms

 Group   1 Type O   : 12s5p4d2f1g contracted to 6s4p3d1f1g pattern {711111/2111/211/2/1}

Atom   0O    basis set group =>   1
Atom   1O    basis set group =>   1


           ************************************************************
           *        Program running with 24 parallel MPI-processes    *
           *              working on a common directory               *
           ************************************************************
------------------------------------------------------------------------------
                           ORCA GTO INTEGRAL CALCULATION
                           -- RI-GTO INTEGRALS CHOSEN --
------------------------------------------------------------------------------

                         BASIS SET STATISTICS AND STARTUP INFO

Gaussian basis set:
 # of primitive gaussian shells          ...   46
 # of primitive gaussian functions       ...  110
 # of contracted shells                  ...   28
 # of contracted basis functions         ...   80
 Highest angular momentum                ...    3
 Maximum contraction depth               ...    6
Auxiliary gaussian basis set:
 # of primitive gaussian shells          ...   48
 # of primitive gaussian functions       ...  140
 # of contracted shells                  ...   30
 # of contracted aux-basis functions     ...   98
 Highest angular momentum                ...    4
 Maximum contraction depth               ...    7
Ratio of auxiliary to basis functions    ...  1.23
Integral package used                  ... LIBINT
 One Electron integrals                  ... done
 Ordering auxiliary basis shells         ... done
 Integral threshhold             Thresh  ...  1.000e-10
 Primitive cut-off               TCut    ...  1.000e-11
 Pre-screening matrix                    ... done
 Shell pair data                         ... 
 Ordering of the shell pairs             ... done (   0.000 sec) 405 of 406 pairs
 Determination of significant pairs      ... done (   0.000 sec)
 Creation of shell pair data             ... done (   0.000 sec)
 Storage of shell pair data              ... done (   0.014 sec)
 Shell pair data done in (   0.014 sec)
 Computing two index integrals           ... done
 Cholesky decomposition of the V-matrix  ... done


Timings:
 Total evaluation time                   ...   0.180 sec (  0.003 min)
 One electron matrix time                ...   0.027 sec (  0.000 min) = 14.9%
 Schwartz matrix evaluation time         ...   0.110 sec (  0.002 min) = 61.1%
 Two index repulsion integral time       ...   0.000 sec (  0.000 min) =  0.2%
 Cholesky decomposition of V             ...   0.001 sec (  0.000 min) =  0.4%
 Three index repulsion integral time     ...   0.000 sec (  0.000 min) =  0.0%



           ************************************************************
           *        Program running with 24 parallel MPI-processes    *
           *              working on a common directory               *
           ************************************************************
-------------------------------------------------------------------------------
                                 ORCA SCF
-------------------------------------------------------------------------------

------------
SCF SETTINGS
------------
Hamiltonian:
 Density Functional     Method          .... DFT(GTOs)
 Exchange Functional    Exchange        .... TPSS
 Correlation Functional Correlation     .... TPSS
 LDA part of GGA corr.  LDAOpt          .... PW91-LDA
 Gradients option       PostSCFGGA      .... off
   Density functional embedding theory  .... OFF
   NL short-range parameter             ....  5.000000
 RI-approximation to the Coulomb term is turned on
   Number of auxiliary basis functions  .... 98


General Settings:
 Integral files         IntName         .... 172_o
 Hartree-Fock type      HFTyp           .... UHF
 Total Charge           Charge          ....    0
 Multiplicity           Mult            ....    3
 Number of Electrons    NEL             ....   16
 Basis Dimension        Dim             ....   80
 Nuclear Repulsion      ENuc            ....     27.7047064324 Eh

Convergence Acceleration:
 DIIS                   CNVDIIS         .... on
   Start iteration      DIISMaxIt       ....    12
   Startup error        DIISStart       ....  0.200000
   # of expansion vecs  DIISMaxEq       ....     5
   Bias factor          DIISBfac        ....   1.050
   Max. coefficient     DIISMaxC        ....  10.000
 Newton-Raphson         CNVNR           .... off
 SOSCF                  CNVSOSCF        .... off
 Level Shifting         CNVShift        .... on
   Level shift para.    LevelShift      ....    0.2500
   Turn off err/grad.   ShiftErr        ....    0.0010
 Zerner damping         CNVZerner       .... off
 Static damping         CNVDamp         .... on
   Fraction old density DampFac         ....    0.7000
   Max. Damping (<1)    DampMax         ....    0.9800
   Min. Damping (>=0)   DampMin         ....    0.0000
   Turn off err/grad.   DampErr         ....    0.1000
 Fernandez-Rico         CNVRico         .... off

SCF Procedure:
 Maximum # iterations   MaxIter         ....   125
 SCF integral mode      SCFMode         .... Direct
   Integral package                     .... LIBINT
 Reset frequency        DirectResetFreq ....    20
 Integral Threshold     Thresh          ....  1.000e-10 Eh
 Primitive CutOff       TCut            ....  1.000e-11 Eh

Convergence Tolerance:
 Convergence Check Mode ConvCheckMode   .... Total+1el-Energy
 Convergence forced     ConvForced      .... 0
 Energy Change          TolE            ....  1.000e-06 Eh
 1-El. energy change                    ....  1.000e-03 Eh
 DIIS Error             TolErr          ....  1.000e-06


Diagonalization of the overlap matrix:
Smallest eigenvalue                        ... 2.637e-04
Time for diagonalization                   ...    0.002 sec
Threshold for overlap eigenvalues          ... 1.000e-08
Number of eigenvalues below threshold      ... 0
Time for construction of square roots      ...    0.001 sec
Total time needed                          ...    0.003 sec

-------------------
DFT GRID GENERATION
-------------------

General Integration Accuracy     IntAcc      ...  4.670
Radial Grid Type                 RadialGrid  ... Gauss-Chebyshev
Angular Grid (max. acc.)         AngularGrid ... Lebedev-302
Angular grid pruning method      GridPruning ... 3 (G Style)
Weight generation scheme         WeightScheme... Becke
Basis function cutoff            BFCut       ...    1.0000e-10
Integration weight cutoff        WCut        ...    1.0000e-14
Grids for H and He will be reduced by one unit

# of grid points (after initial pruning)     ...  12424 (   0.0 sec)
# of grid points (after weights+screening)   ...  12396 (   0.0 sec)
nearest neighbour list constructed           ...    0.0 sec
Grid point re-assignment to atoms done       ...    0.0 sec
Grid point division into batches done        ...    0.1 sec
Reduced shell lists constructed in    0.1 sec

Total number of grid points                  ...    12396
Total number of batches                      ...      194
Average number of points per batch           ...       63
Average number of grid points per atom       ...     6198
Average number of shells per batch           ...     8.20 (29.29%)
Average number of basis functions per batch  ...    22.00 (27.50%)
Average number of large shells per batch     ...     4.90 (59.76%)
Average number of large basis fcns per batch ...    13.70 (62.27%)
Maximum spatial batch extension              ...  19.94, 19.94, 11.34 au
Average spatial batch extension              ...   0.68,  0.68,  0.45 au

Time for grid setup =    0.129 sec

------------------------------
INITIAL GUESS: MODEL POTENTIAL
------------------------------
Loading Hartree-Fock densities                     ... done
Calculating cut-offs                               ... done
Setting up the integral package                    ... done
Initializing the effective Hamiltonian             ... done
Starting the Coulomb interaction                   ... done (   0.0 sec)
Reading the grid                                   ... done
Mapping shells                                     ... done
Starting the XC term evaluation                    ... done (   0.0 sec)
  promolecular density results
     # of electrons  =     15.999997739
     EX              =    -16.208436018
     EC              =     -0.533215271
     EX+EC           =    -16.741651289
Transforming the Hamiltonian                       ... done (   0.0 sec)
Diagonalizing the Hamiltonian                      ... done (   0.0 sec)
Back transforming the eigenvectors                 ... done (   0.0 sec)
Now organizing SCF variables                       ... done
                      ------------------
                      INITIAL GUESS DONE (   0.2 sec)
                      ------------------
--------------
SCF ITERATIONS
--------------
ITER       Energy         Delta-E        Max-DP      RMS-DP      [F,P]     Damp
               ***  Starting incremental Fock matrix formation  ***
  0   -150.4047599493   0.000000000000 0.00541230  0.00025590  0.0522383 0.7000
  1   -150.4075483424  -0.002788393091 0.00426184  0.00021017  0.0302568 0.7000
                               ***Turning on DIIS***
  2   -150.4093094633  -0.001761120878 0.00957529  0.00048233  0.0169928 0.0000
  3   -150.4130448579  -0.003735394627 0.00183176  0.00009362  0.0106914 0.0000
  4   -150.4132611220  -0.000216264128 0.00109906  0.00005276  0.0008472 0.0000
  5   -150.4132790241  -0.000017902101 0.00022229  0.00000850  0.0004574 0.0000
  6   -150.4132798445  -0.000000820408 0.00007916  0.00000323  0.0001999 0.0000
                 **** Energy Check signals convergence ****

               *****************************************************
               *                     SUCCESS                       *
               *           SCF CONVERGED AFTER   7 CYCLES          *
               *****************************************************


----------------
TOTAL SCF ENERGY
----------------

Total Energy       :         -150.41327998 Eh           -4092.95343 eV

Components:
Nuclear Repulsion  :           27.70470643 Eh             753.88339 eV
Electronic Energy  :         -178.11798641 Eh           -4846.83682 eV
One Electron Energy:         -261.24384245 Eh           -7108.80636 eV
Two Electron Energy:           83.12585604 Eh            2261.96954 eV

Virial components:
Potential Energy   :         -300.32179184 Eh           -8172.17142 eV
Kinetic Energy     :          149.90851186 Eh            4079.21799 eV
Virial Ratio       :            2.00336717


DFT components:
N(Alpha)           :        9.000000366739 electrons
N(Beta)            :        7.000000648546 electrons
N(Total)           :       16.000001015285 electrons
E(X)               :      -16.521193888223 Eh       
E(C)               :       -0.533302930473 Eh       
E(XC)              :      -17.054496818696 Eh       
DFET-embed. en.    :        0.000000000000 Eh       

---------------
SCF CONVERGENCE
---------------

  Last Energy change         ...   -1.3121e-07  Tolerance :   1.0000e-06
  Last MAX-Density change    ...    1.2741e-05  Tolerance :   1.0000e-05
  Last RMS-Density change    ...    4.8472e-07  Tolerance :   1.0000e-06
  Last DIIS Error            ...    2.1091e-05  Tolerance :   1.0000e-06

             **** THE GBW FILE WAS UPDATED (172_o.gbw) ****
             **** DENSITY FILE WAS UPDATED (172_o.scfp) ****
             **** ENERGY FILE WAS UPDATED (172_o.en.tmp) ****
----------------------
UHF SPIN CONTAMINATION
----------------------

Warning: in a DFT calculation there is little theoretical justification to 
         calculate <S**2> as in Hartree-Fock theory. We will do it anyways
         but you should keep in mind that the values have only limited relevance

Expectation value of <S**2>     :     2.006258
Ideal value S*(S+1) for S=1.0   :     2.000000
Deviation                       :     0.006258

             **** THE GBW FILE WAS UPDATED (172_o.gbw) ****
             **** DENSITY FILE WAS UPDATED (172_o.scfp) ****
----------------
ORBITAL ENERGIES
----------------
                 SPIN UP ORBITALS
  NO   OCC          E(Eh)            E(eV) 
   0   1.0000     -19.042835      -518.1819 
   1   1.0000     -19.042802      -518.1810 
   2   1.0000      -1.215788       -33.0833 
   3   1.0000      -0.779794       -21.2193 
   4   1.0000      -0.501662       -13.6509 
   5   1.0000      -0.501662       -13.6509 
   6   1.0000      -0.498899       -13.5757 
   7   1.0000      -0.261885        -7.1262 
   8   1.0000      -0.261885        -7.1262 
   9   0.0000       0.033390         0.9086 
  10   0.0000       0.041021         1.1162 
  11   0.0000       0.065033         1.7696 
  12   0.0000       0.065033         1.7696 
  13   0.0000       0.113642         3.0924 
  14   0.0000       0.117596         3.1999 
  15   0.0000       0.117596         3.1999 
  16   0.0000       0.142034         3.8649 
  17   0.0000       0.257063         6.9950 
  18   0.0000       0.296321         8.0633 
  19   0.0000       0.296322         8.0633 
  20   0.0000       0.397549        10.8179 
  21   0.0000       0.438953        11.9445 
  22   0.0000       0.445952        12.1350 
  23   0.0000       0.445952        12.1350 
  24   0.0000       0.450826        12.2676 
  25   0.0000       0.450826        12.2676 
  26   0.0000       0.468017        12.7354 
  27   0.0000       0.468018        12.7354 
  28   0.0000       0.512146        13.9362 
  29   0.0000       0.512146        13.9362 
  30   0.0000       0.593180        16.1413 
  31   0.0000       0.755560        20.5598 
  32   0.0000       0.864200        23.5161 
  33   0.0000       0.864200        23.5161 
  34   0.0000       0.873706        23.7747 
  35   0.0000       1.181386        32.1472 
  36   0.0000       1.412305        38.4308 
  37   0.0000       1.412305        38.4308 
  38   0.0000       1.422544        38.7094 
  39   0.0000       1.422544        38.7094 
  40   0.0000       1.731351        47.1125 
  41   0.0000       1.731352        47.1125 
  42   0.0000       1.873834        50.9896 
  43   0.0000       2.068631        56.2903 
  44   0.0000       2.068631        56.2903 
  45   0.0000       2.328879        63.3720 
  46   0.0000       2.446093        66.5616 
  47   0.0000       2.446093        66.5616 
  48   0.0000       2.741934        74.6118 
  49   0.0000       2.936603        79.9090 
  50   0.0000       2.936603        79.9090 
  51   0.0000       3.027764        82.3896 
  52   0.0000       3.161599        86.0315 
  53   0.0000       4.197228       114.2124 
  54   0.0000       4.545799       123.6975 
  55   0.0000       4.545804       123.6976 
  56   0.0000       4.640885       126.2849 
  57   0.0000       4.640885       126.2849 
  58   0.0000       4.881451       132.8310 
  59   0.0000       4.881451       132.8310 
  60   0.0000       4.910386       133.6184 
  61   0.0000       5.108869       139.0194 
  62   0.0000       5.108869       139.0194 
  63   0.0000       5.628978       153.1723 
  64   0.0000       5.628981       153.1724 
  65   0.0000       6.113046       166.3444 
  66   0.0000       6.113102       166.3460 
  67   0.0000       6.190611       168.4551 
  68   0.0000       6.190611       168.4551 
  69   0.0000       6.289500       171.1460 
  70   0.0000       6.289548       171.1473 
  71   0.0000       6.410480       174.4380 
  72   0.0000       6.410480       174.4380 
  73   0.0000       6.418092       174.6451 
  74   0.0000       7.162475       194.9009 
  75   0.0000       7.162475       194.9009 
  76   0.0000       7.358430       200.2331 
  77   0.0000       8.610118       234.2932 
  78   0.0000      43.228884      1176.3177 
  79   0.0000      43.890302      1194.3158 

                 SPIN DOWN ORBITALS
  NO   OCC          E(Eh)            E(eV) 
   0   1.0000     -19.012853      -517.3660 
   1   1.0000     -19.012810      -517.3649 
   2   1.0000      -1.169221       -31.8161 
   3   1.0000      -0.706559       -19.2264 
   4   1.0000      -0.468553       -12.7500 
   5   1.0000      -0.422341       -11.4925 
   6   1.0000      -0.422341       -11.4925 
   7   0.0000      -0.162556        -4.4234 
   8   0.0000      -0.162556        -4.4234 
   9   0.0000       0.044129         1.2008 
  10   0.0000       0.049908         1.3581 
  11   0.0000       0.072774         1.9803 
  12   0.0000       0.072774         1.9803 
  13   0.0000       0.117196         3.1891 
  14   0.0000       0.127975         3.4824 
  15   0.0000       0.127975         3.4824 
  16   0.0000       0.173836         4.7303 
  17   0.0000       0.270801         7.3689 
  18   0.0000       0.307156         8.3581 
  19   0.0000       0.307157         8.3582 
  20   0.0000       0.402550        10.9539 
  21   0.0000       0.448544        12.2055 
  22   0.0000       0.459366        12.5000 
  23   0.0000       0.459366        12.5000 
  24   0.0000       0.462870        12.5953 
  25   0.0000       0.462870        12.5953 
  26   0.0000       0.482056        13.1174 
  27   0.0000       0.482057        13.1174 
  28   0.0000       0.538895        14.6641 
  29   0.0000       0.538895        14.6641 
  30   0.0000       0.612067        16.6552 
  31   0.0000       0.770285        20.9605 
  32   0.0000       0.879463        23.9314 
  33   0.0000       0.892309        24.2810 
  34   0.0000       0.892309        24.2810 
  35   0.0000       1.209279        32.9062 
  36   0.0000       1.439617        39.1740 
  37   0.0000       1.439617        39.1740 
  38   0.0000       1.471113        40.0310 
  39   0.0000       1.471114        40.0310 
  40   0.0000       1.794986        48.8440 
  41   0.0000       1.794987        48.8441 
  42   0.0000       1.902792        51.7776 
  43   0.0000       2.111982        57.4699 
  44   0.0000       2.111982        57.4699 
  45   0.0000       2.353048        64.0297 
  46   0.0000       2.519819        68.5678 
  47   0.0000       2.519819        68.5678 
  48   0.0000       2.789037        75.8936 
  49   0.0000       3.008247        81.8586 
  50   0.0000       3.008247        81.8586 
  51   0.0000       3.068093        83.4870 
  52   0.0000       3.210643        87.3660 
  53   0.0000       4.245825       115.5348 
  54   0.0000       4.597408       125.1018 
  55   0.0000       4.597413       125.1020 
  56   0.0000       4.680993       127.3763 
  57   0.0000       4.680993       127.3763 
  58   0.0000       4.955637       134.8497 
  59   0.0000       4.955637       134.8497 
  60   0.0000       4.963552       135.0651 
  61   0.0000       5.186306       141.1266 
  62   0.0000       5.186306       141.1266 
  63   0.0000       5.695642       154.9863 
  64   0.0000       5.695645       154.9864 
  65   0.0000       6.227492       169.4587 
  66   0.0000       6.227548       169.4602 
  67   0.0000       6.259349       170.3255 
  68   0.0000       6.259349       170.3255 
  69   0.0000       6.401902       174.2046 
  70   0.0000       6.401947       174.2058 
  71   0.0000       6.478453       176.2877 
  72   0.0000       6.484216       176.4445 
  73   0.0000       6.484216       176.4445 
  74   0.0000       7.224758       196.5957 
  75   0.0000       7.224758       196.5957 
  76   0.0000       7.416295       201.8077 
  77   0.0000       8.663582       235.7480 
  78   0.0000      43.266548      1177.3426 
  79   0.0000      43.927340      1195.3237 

                    ********************************
                    * MULLIKEN POPULATION ANALYSIS *
                    ********************************

--------------------------------------------
MULLIKEN ATOMIC CHARGES AND SPIN POPULATIONS
--------------------------------------------
   0 O :   -0.000000    1.000000
   1 O :    0.000000    1.000000
Sum of atomic charges         :   -0.0000000
Sum of atomic spin populations:    2.0000000

-----------------------------------------------------
MULLIKEN REDUCED ORBITAL CHARGES AND SPIN POPULATIONS
-----------------------------------------------------
CHARGE
  0 O s       :     3.953839  s :     3.953839
      pz      :     1.034227  p :     4.000674
      px      :     1.483224
      py      :     1.483224
      dz2     :     0.010107  d :     0.040965
      dxz     :     0.015429
      dyz     :     0.015429
      dx2y2   :     0.000000
      dxy     :     0.000000
      f0      :     0.001827  f :     0.004521
      f+1     :     0.001347
      f-1     :     0.001347
      f+2     :     0.000000
      f-2     :     0.000000
      f+3     :     0.000000
      f-3     :     0.000000
  1 O s       :     3.953839  s :     3.953839
      pz      :     1.034227  p :     4.000674
      px      :     1.483224
      py      :     1.483224
      dz2     :     0.010107  d :     0.040965
      dxz     :     0.015429
      dyz     :     0.015429
      dx2y2   :     0.000000
      dxy     :     0.000000
      f0      :     0.001827  f :     0.004521
      f+1     :     0.001347
      f-1     :     0.001347
      f+2     :     0.000000
      f-2     :     0.000000
      f+3     :     0.000000
      f-3     :     0.000000

SPIN
  0 O s       :     0.007609  s :     0.007609
      pz      :    -0.006179  p :     1.001917
      px      :     0.504048
      py      :     0.504048
      dz2     :    -0.001102  d :    -0.009039
      dxz     :    -0.003969
      dyz     :    -0.003969
      dx2y2   :    -0.000000
      dxy     :    -0.000000
      f0      :    -0.000329  f :    -0.000487
      f+1     :    -0.000079
      f-1     :    -0.000079
      f+2     :    -0.000000
      f-2     :     0.000000
      f+3     :     0.000000
      f-3     :     0.000000
  1 O s       :     0.007609  s :     0.007609
      pz      :    -0.006179  p :     1.001917
      px      :     0.504048
      py      :     0.504048
      dz2     :    -0.001102  d :    -0.009039
      dxz     :    -0.003969
      dyz     :    -0.003969
      dx2y2   :     0.000000
      dxy     :    -0.000000
      f0      :    -0.000329  f :    -0.000487
      f+1     :    -0.000079
      f-1     :    -0.000079
      f+2     :    -0.000000
      f-2     :    -0.000000
      f+3     :     0.000000
      f-3     :     0.000000


                     *******************************
                     * LOEWDIN POPULATION ANALYSIS *
                     *******************************

-------------------------------------------
LOEWDIN ATOMIC CHARGES AND SPIN POPULATIONS
-------------------------------------------
   0 O :   -0.000000    1.000000
   1 O :    0.000000    1.000000

----------------------------------------------------
LOEWDIN REDUCED ORBITAL CHARGES AND SPIN POPULATIONS
----------------------------------------------------
CHARGE
  0 O s       :     3.561955  s :     3.561955
      pz      :     1.274280  p :     4.075829
      px      :     1.400774
      py      :     1.400774
      dz2     :     0.156420  d :     0.344579
      dxz     :     0.094079
      dyz     :     0.094079
      dx2y2   :     0.000000
      dxy     :     0.000000
      f0      :     0.007345  f :     0.017637
      f+1     :     0.005146
      f-1     :     0.005146
      f+2     :     0.000000
      f-2     :     0.000000
      f+3     :     0.000000
      f-3     :     0.000000
  1 O s       :     3.561955  s :     3.561955
      pz      :     1.274280  p :     4.075829
      px      :     1.400774
      py      :     1.400774
      dz2     :     0.156420  d :     0.344579
      dxz     :     0.094079
      dyz     :     0.094079
      dx2y2   :     0.000000
      dxy     :     0.000000
      f0      :     0.007345  f :     0.017637
      f+1     :     0.005146
      f-1     :     0.005146
      f+2     :     0.000000
      f-2     :     0.000000
      f+3     :     0.000000
      f-3     :     0.000000

SPIN
  0 O s       :     0.010198  s :     0.010198
      pz      :    -0.011368  p :     0.883624
      px      :     0.447496
      py      :     0.447496
      dz2     :     0.001363  d :     0.101640
      dxz     :     0.050138
      dyz     :     0.050138
      dx2y2   :     0.000000
      dxy     :    -0.000000
      f0      :    -0.000192  f :     0.004538
      f+1     :     0.002365
      f-1     :     0.002365
      f+2     :     0.000000
      f-2     :     0.000000
      f+3     :     0.000000
      f-3     :     0.000000
  1 O s       :     0.010198  s :     0.010198
      pz      :    -0.011368  p :     0.883624
      px      :     0.447496
      py      :     0.447496
      dz2     :     0.001363  d :     0.101640
      dxz     :     0.050138
      dyz     :     0.050138
      dx2y2   :     0.000000
      dxy     :    -0.000000
      f0      :    -0.000192  f :     0.004538
      f+1     :     0.002365
      f-1     :     0.002365
      f+2     :     0.000000
      f-2     :     0.000000
      f+3     :     0.000000
      f-3     :     0.000000


                      *****************************
                      * MAYER POPULATION ANALYSIS *
                      *****************************

  NA   - Mulliken gross atomic population
  ZA   - Total nuclear charge
  QA   - Mulliken gross atomic charge
  VA   - Mayer's total valence
  BVA  - Mayer's bonded valence
  FA   - Mayer's free valence

  ATOM       NA         ZA         QA         VA         BVA        FA
  0 O      8.0000     8.0000    -0.0000     2.1858     1.6524     0.5334
  1 O      8.0000     8.0000     0.0000     2.1858     1.6524     0.5334

  Mayer bond orders larger than 0.100000
B(  0-O ,  1-O ) :   1.6524 

-------
TIMINGS
-------

Total SCF time: 0 days 0 hours 0 min 1 sec 

Total time                  ....       1.121 sec
Sum of individual times     ....       1.022 sec  ( 91.2%)

Fock matrix formation       ....       0.745 sec  ( 66.5%)
  Split-RI-J                ....       0.597 sec  ( 80.1% of F)
  XC integration            ....       0.114 sec  ( 15.3% of F)
    Basis function eval.    ....       0.010 sec  (  8.6% of XC)
    Density eval.           ....       0.021 sec  ( 18.0% of XC)
    XC-Functional eval.     ....       0.010 sec  (  9.2% of XC)
    XC-Potential eval.      ....       0.042 sec  ( 36.3% of XC)
Diagonalization             ....       0.014 sec  (  1.3%)
Density matrix formation    ....       0.004 sec  (  0.3%)
Population analysis         ....       0.004 sec  (  0.4%)
Initial guess               ....       0.121 sec  ( 10.8%)
Orbital Transformation      ....       0.000 sec  (  0.0%)
Orbital Orthonormalization  ....       0.000 sec  (  0.0%)
DIIS solution               ....       0.005 sec  (  0.5%)
Grid generation             ....       0.129 sec  ( 11.5%)


-------------------------------------------------------------------------------
                          DFT DISPERSION CORRECTION                            
                                                                               
                              DFTD3 V3.1  Rev 1                                
                          USING Becke-Johnson damping                          
-------------------------------------------------------------------------------
The TPSS functional is recognized
Active option DFTDOPT                   ...         4   

molecular C6(AA) [au] = 51.246886 


            DFT-D V3
 parameters
 s6 scaling factor         :     1.0000 
 a1 scaling factor         :     0.4535 
 s8 scaling factor         :     1.9435 
 a2 scaling factor         :     4.4752 
 ad hoc parameters k1-k3   :    16.0000     1.3333    -4.0000 

 Edisp/kcal,au: -0.202599298183  -0.000322862498 
 E6   /kcal   :  -0.105171547 
 E8   /kcal   :  -0.097427751 
 % E8         :  48.088888902 

-------------------------   ----------------
Dispersion correction           -0.000322862
-------------------------   ----------------


-------------------------   --------------------
FINAL SINGLE POINT ENERGY      -150.413602838249
-------------------------   --------------------


                            ***************************************
                            *     ORCA property calculations      *
                            ***************************************

                                    ---------------------
                                    Active property flags
                                    ---------------------
   (+) Dipole Moment


------------------------------------------------------------------------------
                       ORCA ELECTRIC PROPERTIES CALCULATION
------------------------------------------------------------------------------

Dipole Moment Calculation                       ... on
Quadrupole Moment Calculation                   ... off
Polarizability Calculation                      ... off
GBWName                                         ... 172_o.gbw
Electron density file                           ... 172_o.scfp
The origin for moment calculation is the CENTER OF MASS  = ( 0.000000,  0.000000  0.000000)

-------------
DIPOLE MOMENT
-------------
                                X             Y             Z
Electronic contribution:     -0.00000       0.00000      -0.00000
Nuclear contribution   :      0.00000       0.00000       0.00000
                        -----------------------------------------
Total Dipole Moment    :     -0.00000       0.00000      -0.00000
                        -----------------------------------------
Magnitude (a.u.)       :      0.00000
Magnitude (Debye)      :      0.00000



--------------------
Rotational spectrum 
--------------------
 
Rotational constants in cm-1:     0.000000     1.410194     1.410194 
Rotational constants in MHz :     0.000000 42276.561443 42276.561443 

 Dipole components along the rotational axes: 
x,y,z [a.u.] :    -0.000000     0.000000    -0.000000 
x,y,z [Debye]:    -0.000000     0.000000    -0.000000 

 

Timings for individual modules:

Sum of individual times         ...        2.180 sec (=   0.036 min)
GTO integral calculation        ...        0.633 sec (=   0.011 min)  29.0 %
SCF iterations                  ...        1.547 sec (=   0.026 min)  71.0 %
                             ****ORCA TERMINATED NORMALLY****
TOTAL RUN TIME: 0 days 0 hours 0 minutes 2 seconds 774 msec
