
                                 *****************
                                 * O   R   C   A *
                                 *****************

           --- An Ab Initio, DFT and Semiempirical electronic structure package ---

                  #######################################################
                  #                        -***-                        #
                  #          Department of theory and spectroscopy      #
                  #               Directorship: Frank Neese             #
                  #        Max Planck Institute fuer Kohlenforschung    #
                  #                Kaiser Wilhelm Platz 1               #
                  #                 D-45470 Muelheim/Ruhr               #
                  #                      Germany                        #
                  #                                                     #
                  #                  All rights reserved                #
                  #                        -***-                        #
                  #######################################################


                         Program Version 4.2.0 -  RELEASE  -


 With contributions from (in alphabetic order):
   Daniel Aravena         : Magnetic Suceptibility
   Michael Atanasov       : Ab Initio Ligand Field Theory (pilot matlab implementation)
   Alexander A. Auer      : GIAO ZORA, VPT2
   Ute Becker             : Parallelization
   Giovanni Bistoni       : ED, misc. LED, open-shell LED, HFLED
   Martin Brehm           : Molecular dynamics
   Dmytro Bykov           : SCF Hessian
   Vijay G. Chilkuri      : MRCI spin determinant printing, contributions to CSF-ICE
   Dipayan Datta          : RHF DLPNO-CCSD density
   Achintya Kumar Dutta   : EOM-CC, STEOM-CC
   Dmitry Ganyushin       : Spin-Orbit,Spin-Spin,Magnetic field MRCI
   Miquel Garcia          : C-PCM Hessian, Gaussian charge scheme
   Yang Guo               : DLPNO-NEVPT2, CIM, IAO-localization
   Andreas Hansen         : Spin unrestricted coupled pair/coupled cluster methods
   Benjamin Helmich-Paris : CASSCF linear response (MC-RPA)
   Lee Huntington         : MR-EOM, pCC
   Robert Izsak           : Overlap fitted RIJCOSX, COSX-SCS-MP3, EOM
   Christian Kollmar      : KDIIS, OOCD, Brueckner-CCSD(T), CCSD density
   Simone Kossmann        : Meta GGA functionals, TD-DFT gradient, OOMP2, MP2 Hessian
   Martin Krupicka        : AUTO-CI
   Lucas Lang             : DCDCAS
   Dagmar Lenk            : GEPOL surface, SMD
   Dimitrios Liakos       : Extrapolation schemes; Compound Job, initial MDCI parallelization
   Dimitrios Manganas     : Further ROCIS development; embedding schemes
   Dimitrios Pantazis     : SARC Basis sets
   Taras Petrenko         : DFT Hessian,TD-DFT gradient, ASA, ECA, R-Raman, ABS, FL, XAS/XES, NRVS
   Peter Pinski           : DLPNO-MP2, DLPNO-MP2 Gradient
   Christoph Reimann      : Effective Core Potentials
   Marius Retegan         : Local ZFS, SOC
   Christoph Riplinger    : Optimizer, TS searches, QM/MM, DLPNO-CCSD(T), (RO)-DLPNO pert. Triples
   Tobias Risthaus        : Range-separated hybrids, TD-DFT gradient, RPA, STAB
   Michael Roemelt        : Original ROCIS implementation
   Masaaki Saitow         : Open-shell DLPNO-CCSD energy and density
   Barbara Sandhoefer     : DKH picture change effects
   Avijit Sen             : IP-ROCIS
   Kantharuban Sivalingam : CASSCF convergence, NEVPT2, FIC-MRCI
   Bernardo de Souza      : ESD, SOC TD-DFT
   Georgi Stoychev        : AutoAux, RI-MP2 NMR
   Willem Van den Heuvel  : Paramagnetic NMR
   Boris Wezisla          : Elementary symmetry handling
   Frank Wennmohs         : Technical directorship


 We gratefully acknowledge several colleagues who have allowed us to
 interface, adapt or use parts of their codes:
   Stefan Grimme, W. Hujo, H. Kruse,             : VdW corrections, initial TS optimization,
                  C. Bannwarth                     DFT functionals, gCP, sTDA/sTD-DF
   Ed Valeev, F. Pavosevic, A. Kumar             : LibInt (2-el integral package), F12 methods
   Garnet Chan, S. Sharma, J. Yang, R. Olivares  : DMRG
   Ulf Ekstrom                                   : XCFun DFT Library
   Mihaly Kallay                                 : mrcc  (arbitrary order and MRCC methods)
   Andreas Klamt, Michael Diedenhofen            : otool_cosmo (COSMO solvation model)
   Jiri Pittner, Ondrej Demel                    : Mk-CCSD
   Frank Weinhold                                : gennbo (NPA and NBO analysis)
   Christopher J. Cramer and Donald G. Truhlar   : smd solvation model
   Lars Goerigk                                  : TD-DFT with DH, B97 family of functionals
   V. Asgeirsson, H. Jonsson                     : NEB implementation
   FAccTs GmbH                                   : IRC, NEB, NEB-TS, Multilevel, MM, QM/MM, CI optimization
   S Lehtola, MJT Oliveira, MAL Marques          : LibXC Library


 Your calculation uses the libint2 library for the computation of 2-el integrals
 For citations please refer to: http://libint.valeyev.net

 Your ORCA version has been built with support for libXC version: 4.2.3
 For citations please refer to: https://tddft.org/programs/libxc/

 This ORCA versions uses:
   CBLAS   interface :  Fast vector & matrix operations
   LAPACKE interface :  Fast linear algebra routines
   SCALAPACK package :  Parallel linear algebra routines


Your calculation utilizes the atom-pairwise dispersion correction
with the Becke-Johnson damping scheme (D3BJ)
Cite in your paper:
S.Grimme, S.Ehrlich, L.Goerigk, J Comput Chem, (2011), 32, 1456–1465 
S.Grimme, J.Antony, S.Ehrlich and H.Krieg, J.Chem.Phys., 132, (2010), 154104 
   

----- Orbital basis set information -----
Your calculation utilizes the basis: def2-TZVPPD
   F. Weigend and R. Ahlrichs, Phys. Chem. Chem. Phys. 7, 3297 (2005).
   D. Rappoport and F. Furche, J. Chem. Phys. 133 134105 (2010).

----- AuxJ basis set information -----
Your calculation utilizes the auxiliary basis: def2/J
   F. Weigend, Phys. Chem. Chem. Phys. 8, 1057 (2006).

================================================================================
                                        WARNINGS
                       Please study these warnings very carefully!
================================================================================


INFO   : the flag for use of LIBINT has been found!

================================================================================
                                       INPUT FILE
================================================================================
NAME = 174_na.in
|  1> #
|  2> # 174_na TPSS-D3BJ/Def2-TZVPPD
|  3> #
|  4> ! tpss d3bj def2-tzvppd def2/j grid4 nofinalgrid
|  5> 
|  6> *xyz 0 1
|  7> Na         0.00000        0.00000        0.94863
|  8> H          0.00000        0.00000       -0.94863
|  9> *
| 10> 
| 11> %maxcore 5000
| 12> 
| 13> %pal
| 14> nprocs = 24
| 15> end
| 16> 
| 17> 
| 18>                          ****END OF INPUT****
================================================================================

                       ****************************
                       * Single Point Calculation *
                       ****************************

---------------------------------
CARTESIAN COORDINATES (ANGSTROEM)
---------------------------------
  Na     0.000000    0.000000    0.948630
  H      0.000000    0.000000   -0.948630

----------------------------
CARTESIAN COORDINATES (A.U.)
----------------------------
  NO LB      ZA    FRAG     MASS         X           Y           Z
   0 Na   11.0000    0    22.990    0.000000    0.000000    1.792651
   1 H     1.0000    0     1.008    0.000000    0.000000   -1.792651

--------------------------------
INTERNAL COORDINATES (ANGSTROEM)
--------------------------------
 Na     0   0   0     0.000000000000     0.00000000     0.00000000
 H      1   0   0     1.897260000000     0.00000000     0.00000000

---------------------------
INTERNAL COORDINATES (A.U.)
---------------------------
 Na     0   0   0     0.000000000000     0.00000000     0.00000000
 H      1   0   0     3.585301804843     0.00000000     0.00000000

---------------------
BASIS SET INFORMATION
---------------------
There are 2 groups of distinct atoms

 Group   1 Type Na  : 14s9p3d contracted to 5s5p3d pattern {73211/51111/111}
 Group   2 Type H   : 5s3p1d contracted to 3s3p1d pattern {311/111/1}

Atom   0Na   basis set group =>   1
Atom   1H    basis set group =>   2
---------------------------------
AUXILIARY/J BASIS SET INFORMATION
---------------------------------
There are 2 groups of distinct atoms

 Group   1 Type Na  : 14s5p5d2f1g contracted to 8s4p4d1f1g pattern {71111111/2111/2111/2/1}
 Group   2 Type H   : 5s2p1d contracted to 3s1p1d pattern {311/2/1}

Atom   0Na   basis set group =>   1
Atom   1H    basis set group =>   2


           ************************************************************
           *        Program running with 24 parallel MPI-processes    *
           *              working on a common directory               *
           ************************************************************
------------------------------------------------------------------------------
                           ORCA GTO INTEGRAL CALCULATION
                           -- RI-GTO INTEGRALS CHOSEN --
------------------------------------------------------------------------------

                         BASIS SET STATISTICS AND STARTUP INFO

Gaussian basis set:
 # of primitive gaussian shells          ...   35
 # of primitive gaussian functions       ...   75
 # of contracted shells                  ...   20
 # of contracted basis functions         ...   52
 Highest angular momentum                ...    2
 Maximum contraction depth               ...    7
Auxiliary gaussian basis set:
 # of primitive gaussian shells          ...   35
 # of primitive gaussian functions       ...   93
 # of contracted shells                  ...   23
 # of contracted aux-basis functions     ...   67
 Highest angular momentum                ...    4
 Maximum contraction depth               ...    7
Ratio of auxiliary to basis functions    ...  1.29
Integral package used                  ... LIBINT
 One Electron integrals                  ... done
 Ordering auxiliary basis shells         ... done
 Integral threshhold             Thresh  ...  1.000e-10
 Primitive cut-off               TCut    ...  1.000e-11
 Pre-screening matrix                    ... done
 Shell pair data                         ... 
 Ordering of the shell pairs             ... done (   0.000 sec) 210 of 210 pairs
 Determination of significant pairs      ... done (   0.000 sec)
 Creation of shell pair data             ... done (   0.000 sec)
 Storage of shell pair data              ... done (   0.000 sec)
 Shell pair data done in (   0.000 sec)
 Computing two index integrals           ... done
 Cholesky decomposition of the V-matrix  ... done


Timings:
 Total evaluation time                   ...   0.193 sec (  0.003 min)
 One electron matrix time                ...   0.020 sec (  0.000 min) = 10.3%
 Schwartz matrix evaluation time         ...   0.138 sec (  0.002 min) = 71.5%
 Two index repulsion integral time       ...   0.011 sec (  0.000 min) =  5.7%
 Cholesky decomposition of V             ...   0.001 sec (  0.000 min) =  0.3%
 Three index repulsion integral time     ...   0.000 sec (  0.000 min) =  0.0%



           ************************************************************
           *        Program running with 24 parallel MPI-processes    *
           *              working on a common directory               *
           ************************************************************
-------------------------------------------------------------------------------
                                 ORCA SCF
-------------------------------------------------------------------------------

------------
SCF SETTINGS
------------
Hamiltonian:
 Density Functional     Method          .... DFT(GTOs)
 Exchange Functional    Exchange        .... TPSS
 Correlation Functional Correlation     .... TPSS
 LDA part of GGA corr.  LDAOpt          .... PW91-LDA
 Gradients option       PostSCFGGA      .... off
   Density functional embedding theory  .... OFF
   NL short-range parameter             ....  5.000000
 RI-approximation to the Coulomb term is turned on
   Number of auxiliary basis functions  .... 67


General Settings:
 Integral files         IntName         .... 174_na
 Hartree-Fock type      HFTyp           .... RHF
 Total Charge           Charge          ....    0
 Multiplicity           Mult            ....    1
 Number of Electrons    NEL             ....   12
 Basis Dimension        Dim             ....   52
 Nuclear Repulsion      ENuc            ....      3.0680820190 Eh

Convergence Acceleration:
 DIIS                   CNVDIIS         .... on
   Start iteration      DIISMaxIt       ....    12
   Startup error        DIISStart       ....  0.200000
   # of expansion vecs  DIISMaxEq       ....     5
   Bias factor          DIISBfac        ....   1.050
   Max. coefficient     DIISMaxC        ....  10.000
 Newton-Raphson         CNVNR           .... off
 SOSCF                  CNVSOSCF        .... on
   Start iteration      SOSCFMaxIt      ....   150
   Startup grad/error   SOSCFStart      ....  0.003300
 Level Shifting         CNVShift        .... on
   Level shift para.    LevelShift      ....    0.2500
   Turn off err/grad.   ShiftErr        ....    0.0010
 Zerner damping         CNVZerner       .... off
 Static damping         CNVDamp         .... on
   Fraction old density DampFac         ....    0.7000
   Max. Damping (<1)    DampMax         ....    0.9800
   Min. Damping (>=0)   DampMin         ....    0.0000
   Turn off err/grad.   DampErr         ....    0.1000
 Fernandez-Rico         CNVRico         .... off

SCF Procedure:
 Maximum # iterations   MaxIter         ....   125
 SCF integral mode      SCFMode         .... Direct
   Integral package                     .... LIBINT
 Reset frequency        DirectResetFreq ....    20
 Integral Threshold     Thresh          ....  1.000e-10 Eh
 Primitive CutOff       TCut            ....  1.000e-11 Eh

Convergence Tolerance:
 Convergence Check Mode ConvCheckMode   .... Total+1el-Energy
 Convergence forced     ConvForced      .... 0
 Energy Change          TolE            ....  1.000e-06 Eh
 1-El. energy change                    ....  1.000e-03 Eh
 Orbital Gradient       TolG            ....  5.000e-05
 Orbital Rotation angle TolX            ....  5.000e-05
 DIIS Error             TolErr          ....  1.000e-06


Diagonalization of the overlap matrix:
Smallest eigenvalue                        ... 3.893e-03
Time for diagonalization                   ...    0.002 sec
Threshold for overlap eigenvalues          ... 1.000e-08
Number of eigenvalues below threshold      ... 0
Time for construction of square roots      ...    0.001 sec
Total time needed                          ...    0.003 sec

-------------------
DFT GRID GENERATION
-------------------

General Integration Accuracy     IntAcc      ...  4.670
Radial Grid Type                 RadialGrid  ... Gauss-Chebyshev
Angular Grid (max. acc.)         AngularGrid ... Lebedev-302
Angular grid pruning method      GridPruning ... 3 (G Style)
Weight generation scheme         WeightScheme... Becke
Basis function cutoff            BFCut       ...    1.0000e-10
Integration weight cutoff        WCut        ...    1.0000e-14
Grids for H and He will be reduced by one unit

# of grid points (after initial pruning)     ...   9928 (   0.0 sec)
# of grid points (after weights+screening)   ...   9879 (   0.0 sec)
nearest neighbour list constructed           ...    0.0 sec
Grid point re-assignment to atoms done       ...    0.0 sec
Grid point division into batches done        ...    0.1 sec
Reduced shell lists constructed in    0.1 sec

Total number of grid points                  ...     9879
Total number of batches                      ...      156
Average number of points per batch           ...       63
Average number of grid points per atom       ...     4940
Average number of shells per batch           ...     6.25 (31.25%)
Average number of basis functions per batch  ...    15.75 (30.29%)
Average number of large shells per batch     ...     3.88 (62.00%)
Average number of large basis fcns per batch ...     8.88 (56.35%)
Maximum spatial batch extension              ...  35.44, 32.23, 19.19 au
Average spatial batch extension              ...   1.26,  1.05,  0.81 au

Time for grid setup =    0.084 sec

------------------------------
INITIAL GUESS: MODEL POTENTIAL
------------------------------
Loading Hartree-Fock densities                     ... done
Calculating cut-offs                               ... done
Setting up the integral package                    ... done
Initializing the effective Hamiltonian             ... done
Starting the Coulomb interaction                   ... done (   0.0 sec)
Reading the grid                                   ... done
Mapping shells                                     ... done
Starting the XC term evaluation                    ... done (   0.0 sec)
  promolecular density results
     # of electrons  =     11.999520033
     EX              =    -14.209108258
     EC              =     -0.395070486
     EX+EC           =    -14.604178744
Transforming the Hamiltonian                       ... done (   0.0 sec)
Diagonalizing the Hamiltonian                      ... done (   0.0 sec)
Back transforming the eigenvectors                 ... done (   0.0 sec)
Now organizing SCF variables                       ... done
                      ------------------
                      INITIAL GUESS DONE (   0.2 sec)
                      ------------------
--------------
SCF ITERATIONS
--------------
ITER       Energy         Delta-E        Max-DP      RMS-DP      [F,P]     Damp
               ***  Starting incremental Fock matrix formation  ***
  0   -162.8213657418   0.000000000000 0.05545290  0.00195750  0.2081545 0.7000
  1   -162.8382743068  -0.016908564994 0.05085145  0.00199347  0.1347042 0.7000
                               ***Turning on DIIS***
  2   -162.8495187228  -0.011244415982 0.13816201  0.00510520  0.0691027 0.0000
  3   -162.8576437188  -0.008124996007 0.03222616  0.00126779  0.0698985 0.0000
  4   -162.8622102235  -0.004566504751 0.02657232  0.00079235  0.0351212 0.0000
  5   -162.8635856894  -0.001375465819 0.01650902  0.00050209  0.0189475 0.0000
  6   -162.8640454969  -0.000459807559 0.00970178  0.00031646  0.0102978 0.0000
  7   -162.8641887753  -0.000143278415 0.00550100  0.00018024  0.0058280 0.0000
  8   -162.8642364036  -0.000047628220 0.00309740  0.00010208  0.0036168 0.0000
                      *** Initiating the SOSCF procedure ***
                           *** Shutting down DIIS ***
                      *** Re-Reading the Fockian *** 
                      *** Removing any level shift *** 
ITER      Energy       Delta-E        Grad      Rot      Max-DP    RMS-DP
  9   -162.86425458  -0.0000181770  0.000634  0.000634  0.001433  0.000053
               *** Restarting incremental Fock matrix formation ***
 10   -162.86426246  -0.0000078799  0.000811  0.008613  0.005082  0.000196
 11   -162.86425598   0.0000064839  0.001010  0.004172  0.003353  0.000117
 12   -162.86426957  -0.0000135937  0.000048  0.000073  0.000094  0.000005
                 **** Energy Check signals convergence ****
              ***Rediagonalizing the Fockian in SOSCF/NRSCF***

               *****************************************************
               *                     SUCCESS                       *
               *           SCF CONVERGED AFTER  13 CYCLES          *
               *****************************************************


----------------
TOTAL SCF ENERGY
----------------

Total Energy       :         -162.86426958 Eh           -4431.76208 eV

Components:
Nuclear Repulsion  :            3.06808202 Eh              83.48676 eV
Electronic Energy  :         -165.93235160 Eh           -4515.24884 eV
One Electron Energy:         -234.63717711 Eh           -6384.80219 eV
Two Electron Energy:           68.70482551 Eh            1869.55335 eV

Virial components:
Potential Energy   :         -324.95152848 Eh           -8842.38063 eV
Kinetic Energy     :          162.08725890 Eh            4410.61855 eV
Virial Ratio       :            2.00479378


DFT components:
N(Alpha)           :        6.000002109403 electrons
N(Beta)            :        6.000002109403 electrons
N(Total)           :       12.000004218806 electrons
E(X)               :      -14.395447342263 Eh       
E(C)               :       -0.406274754325 Eh       
E(XC)              :      -14.801722096588 Eh       
DFET-embed. en.    :        0.000000000000 Eh       

---------------
SCF CONVERGENCE
---------------

  Last Energy change         ...   -9.3671e-09  Tolerance :   1.0000e-06
  Last MAX-Density change    ...    4.0422e-05  Tolerance :   1.0000e-05
  Last RMS-Density change    ...    1.7924e-06  Tolerance :   1.0000e-06
  Last Orbital Gradient      ...    3.9967e-05  Tolerance :   5.0000e-05
  Last Orbital Rotation      ...    8.7246e-06  Tolerance :   5.0000e-05

             **** THE GBW FILE WAS UPDATED (174_na.gbw) ****
             **** DENSITY FILE WAS UPDATED (174_na.scfp) ****
             **** ENERGY FILE WAS UPDATED (174_na.en.tmp) ****
             **** THE GBW FILE WAS UPDATED (174_na.gbw) ****
             **** DENSITY FILE WAS UPDATED (174_na.scfp) ****
----------------
ORBITAL ENERGIES
----------------

  NO   OCC          E(Eh)            E(eV) 
   0   2.0000     -38.138104     -1037.7906 
   1   2.0000      -2.106146       -57.3112 
   2   2.0000      -1.055778       -28.7292 
   3   2.0000      -1.055778       -28.7292 
   4   2.0000      -1.052101       -28.6291 
   5   2.0000      -0.155506        -4.2315 
   6   0.0000      -0.061337        -1.6691 
   7   0.0000      -0.009612        -0.2616 
   8   0.0000      -0.009612        -0.2616 
   9   0.0000       0.018962         0.5160 
  10   0.0000       0.030515         0.8303 
  11   0.0000       0.034615         0.9419 
  12   0.0000       0.034615         0.9419 
  13   0.0000       0.073661         2.0044 
  14   0.0000       0.156157         4.2492 
  15   0.0000       0.156157         4.2492 
  16   0.0000       0.163688         4.4542 
  17   0.0000       0.175755         4.7825 
  18   0.0000       0.175755         4.7825 
  19   0.0000       0.192135         5.2283 
  20   0.0000       0.192135         5.2283 
  21   0.0000       0.232715         6.3325 
  22   0.0000       0.301604         8.2071 
  23   0.0000       0.301604         8.2071 
  24   0.0000       0.325084         8.8460 
  25   0.0000       0.498176        13.5561 
  26   0.0000       0.857805        23.3420 
  27   0.0000       0.869420        23.6581 
  28   0.0000       0.869420        23.6581 
  29   0.0000       1.008898        27.4535 
  30   0.0000       1.008901        27.4536 
  31   0.0000       1.071810        29.1654 
  32   0.0000       1.078455        29.3463 
  33   0.0000       1.078455        29.3463 
  34   0.0000       1.192929        32.4612 
  35   0.0000       1.192929        32.4612 
  36   0.0000       1.428773        38.8789 
  37   0.0000       2.720949        74.0408 
  38   0.0000       3.332529        90.6827 
  39   0.0000       3.371185        91.7346 
  40   0.0000       3.371366        91.7395 
  41   0.0000       3.413393        92.8832 
  42   0.0000       3.413393        92.8832 
  43   0.0000       3.673633        99.9646 
  44   0.0000       4.031510       109.7030 
  45   0.0000       4.031510       109.7030 
  46   0.0000       4.250694       115.6673 
  47   0.0000       5.615928       152.8172 
  48   0.0000       5.615929       152.8172 
  49   0.0000       5.646794       153.6571 
  50   0.0000       5.646794       153.6571 
  51   0.0000       5.753006       156.5472 

                    ********************************
                    * MULLIKEN POPULATION ANALYSIS *
                    ********************************

-----------------------
MULLIKEN ATOMIC CHARGES
-----------------------
   0 Na:    0.534430
   1 H :   -0.534430
Sum of atomic charges:    0.0000000

--------------------------------
MULLIKEN REDUCED ORBITAL CHARGES
--------------------------------
  0 Nas       :     4.408237  s :     4.408237
      pz      :     2.047738  p :     6.047955
      px      :     2.000108
      py      :     2.000108
      dz2     :     0.009185  d :     0.009379
      dxz     :     0.000097
      dyz     :     0.000097
      dx2y2   :     0.000000
      dxy     :     0.000000
  1 H s       :     1.515185  s :     1.515185
      pz      :     0.019598  p :     0.019175
      px      :    -0.000212
      py      :    -0.000212
      dz2     :     0.000058  d :     0.000070
      dxz     :     0.000006
      dyz     :     0.000006
      dx2y2   :     0.000000
      dxy     :     0.000000


                     *******************************
                     * LOEWDIN POPULATION ANALYSIS *
                     *******************************

----------------------
LOEWDIN ATOMIC CHARGES
----------------------
   0 Na:    0.312257
   1 H :   -0.312257

-------------------------------
LOEWDIN REDUCED ORBITAL CHARGES
-------------------------------
  0 Nas       :     4.472197  s :     4.472197
      pz      :     2.154508  p :     6.151473
      px      :     1.998482
      py      :     1.998482
      dz2     :     0.063829  d :     0.064073
      dxz     :     0.000122
      dyz     :     0.000122
      dx2y2   :     0.000000
      dxy     :     0.000000
  1 H s       :     1.255282  s :     1.255282
      pz      :     0.053797  p :     0.056560
      px      :     0.001381
      py      :     0.001381
      dz2     :     0.000387  d :     0.000415
      dxz     :     0.000014
      dyz     :     0.000014
      dx2y2   :     0.000000
      dxy     :     0.000000


                      *****************************
                      * MAYER POPULATION ANALYSIS *
                      *****************************

  NA   - Mulliken gross atomic population
  ZA   - Total nuclear charge
  QA   - Mulliken gross atomic charge
  VA   - Mayer's total valence
  BVA  - Mayer's bonded valence
  FA   - Mayer's free valence

  ATOM       NA         ZA         QA         VA         BVA        FA
  0 Na    10.4656    11.0000     0.5344     0.7257     0.7257     0.0000
  1 H      1.5344     1.0000    -0.5344     0.7257     0.7257    -0.0000

  Mayer bond orders larger than 0.100000
B(  0-Na,  1-H ) :   0.7257 

-------
TIMINGS
-------

Total SCF time: 0 days 0 hours 0 min 1 sec 

Total time                  ....       1.562 sec
Sum of individual times     ....       1.468 sec  ( 94.0%)

Fock matrix formation       ....       1.230 sec  ( 78.8%)
  Split-RI-J                ....       1.054 sec  ( 85.7% of F)
  XC integration            ....       0.102 sec  (  8.3% of F)
    Basis function eval.    ....       0.007 sec  (  7.0% of XC)
    Density eval.           ....       0.008 sec  (  8.1% of XC)
    XC-Functional eval.     ....       0.011 sec  ( 10.4% of XC)
    XC-Potential eval.      ....       0.010 sec  ( 10.2% of XC)
Diagonalization             ....       0.005 sec  (  0.3%)
Density matrix formation    ....       0.002 sec  (  0.2%)
Population analysis         ....       0.002 sec  (  0.1%)
Initial guess               ....       0.138 sec  (  8.8%)
Orbital Transformation      ....       0.000 sec  (  0.0%)
Orbital Orthonormalization  ....       0.000 sec  (  0.0%)
DIIS solution               ....       0.005 sec  (  0.3%)
SOSCF solution              ....       0.001 sec  (  0.1%)
Grid generation             ....       0.084 sec  (  5.4%)


-------------------------------------------------------------------------------
                          DFT DISPERSION CORRECTION                            
                                                                               
                              DFTD3 V3.1  Rev 1                                
                          USING Becke-Johnson damping                          
-------------------------------------------------------------------------------
The TPSS functional is recognized
Active option DFTDOPT                   ...         4   

molecular C6(AA) [au] = 248.025763 


            DFT-D V3
 parameters
 s6 scaling factor         :     1.0000 
 a1 scaling factor         :     0.4535 
 s8 scaling factor         :     1.9435 
 a2 scaling factor         :     4.4752 
 ad hoc parameters k1-k3   :    16.0000     1.3333    -4.0000 

 Edisp/kcal,au: -0.212054319069  -0.000337930032 
 E6   /kcal   :  -0.086587298 
 E8   /kcal   :  -0.125467021 
 % E8         :  59.167396902 

-------------------------   ----------------
Dispersion correction           -0.000337930
-------------------------   ----------------


-------------------------   --------------------
FINAL SINGLE POINT ENERGY      -162.864607509711
-------------------------   --------------------


                            ***************************************
                            *     ORCA property calculations      *
                            ***************************************

                                    ---------------------
                                    Active property flags
                                    ---------------------
   (+) Dipole Moment


------------------------------------------------------------------------------
                       ORCA ELECTRIC PROPERTIES CALCULATION
------------------------------------------------------------------------------

Dipole Moment Calculation                       ... on
Quadrupole Moment Calculation                   ... off
Polarizability Calculation                      ... off
GBWName                                         ... 174_na.gbw
Electron density file                           ... 174_na.scfp
The origin for moment calculation is the CENTER OF MASS  = ( 0.000000,  0.000000  1.642056)

-------------
DIPOLE MOMENT
-------------
                                X             Y             Z
Electronic contribution:      0.00000       0.00000       4.18893
Nuclear contribution   :      0.00000       0.00000      -1.77816
                        -----------------------------------------
Total Dipole Moment    :      0.00000       0.00000       2.41077
                        -----------------------------------------
Magnitude (a.u.)       :      2.41077
Magnitude (Debye)      :      6.12768



--------------------
Rotational spectrum 
--------------------
 
Rotational constants in cm-1:     0.000000     4.849743     4.849743 
Rotational constants in MHz :     0.000000 145391.644375 145391.644375 

 Dipole components along the rotational axes: 
x,y,z [a.u.] :     2.410766     0.000000     0.000000 
x,y,z [Debye]:     6.127681     0.000000     0.000000 

 

Timings for individual modules:

Sum of individual times         ...        2.596 sec (=   0.043 min)
GTO integral calculation        ...        0.645 sec (=   0.011 min)  24.8 %
SCF iterations                  ...        1.951 sec (=   0.033 min)  75.2 %
                             ****ORCA TERMINATED NORMALLY****
TOTAL RUN TIME: 0 days 0 hours 0 minutes 3 seconds 219 msec
