
                                 *****************
                                 * O   R   C   A *
                                 *****************

           --- An Ab Initio, DFT and Semiempirical electronic structure package ---

                  #######################################################
                  #                        -***-                        #
                  #          Department of theory and spectroscopy      #
                  #               Directorship: Frank Neese             #
                  #        Max Planck Institute fuer Kohlenforschung    #
                  #                Kaiser Wilhelm Platz 1               #
                  #                 D-45470 Muelheim/Ruhr               #
                  #                      Germany                        #
                  #                                                     #
                  #                  All rights reserved                #
                  #                        -***-                        #
                  #######################################################


                         Program Version 4.2.0 -  RELEASE  -


 With contributions from (in alphabetic order):
   Daniel Aravena         : Magnetic Suceptibility
   Michael Atanasov       : Ab Initio Ligand Field Theory (pilot matlab implementation)
   Alexander A. Auer      : GIAO ZORA, VPT2
   Ute Becker             : Parallelization
   Giovanni Bistoni       : ED, misc. LED, open-shell LED, HFLED
   Martin Brehm           : Molecular dynamics
   Dmytro Bykov           : SCF Hessian
   Vijay G. Chilkuri      : MRCI spin determinant printing, contributions to CSF-ICE
   Dipayan Datta          : RHF DLPNO-CCSD density
   Achintya Kumar Dutta   : EOM-CC, STEOM-CC
   Dmitry Ganyushin       : Spin-Orbit,Spin-Spin,Magnetic field MRCI
   Miquel Garcia          : C-PCM Hessian, Gaussian charge scheme
   Yang Guo               : DLPNO-NEVPT2, CIM, IAO-localization
   Andreas Hansen         : Spin unrestricted coupled pair/coupled cluster methods
   Benjamin Helmich-Paris : CASSCF linear response (MC-RPA)
   Lee Huntington         : MR-EOM, pCC
   Robert Izsak           : Overlap fitted RIJCOSX, COSX-SCS-MP3, EOM
   Christian Kollmar      : KDIIS, OOCD, Brueckner-CCSD(T), CCSD density
   Simone Kossmann        : Meta GGA functionals, TD-DFT gradient, OOMP2, MP2 Hessian
   Martin Krupicka        : AUTO-CI
   Lucas Lang             : DCDCAS
   Dagmar Lenk            : GEPOL surface, SMD
   Dimitrios Liakos       : Extrapolation schemes; Compound Job, initial MDCI parallelization
   Dimitrios Manganas     : Further ROCIS development; embedding schemes
   Dimitrios Pantazis     : SARC Basis sets
   Taras Petrenko         : DFT Hessian,TD-DFT gradient, ASA, ECA, R-Raman, ABS, FL, XAS/XES, NRVS
   Peter Pinski           : DLPNO-MP2, DLPNO-MP2 Gradient
   Christoph Reimann      : Effective Core Potentials
   Marius Retegan         : Local ZFS, SOC
   Christoph Riplinger    : Optimizer, TS searches, QM/MM, DLPNO-CCSD(T), (RO)-DLPNO pert. Triples
   Tobias Risthaus        : Range-separated hybrids, TD-DFT gradient, RPA, STAB
   Michael Roemelt        : Original ROCIS implementation
   Masaaki Saitow         : Open-shell DLPNO-CCSD energy and density
   Barbara Sandhoefer     : DKH picture change effects
   Avijit Sen             : IP-ROCIS
   Kantharuban Sivalingam : CASSCF convergence, NEVPT2, FIC-MRCI
   Bernardo de Souza      : ESD, SOC TD-DFT
   Georgi Stoychev        : AutoAux, RI-MP2 NMR
   Willem Van den Heuvel  : Paramagnetic NMR
   Boris Wezisla          : Elementary symmetry handling
   Frank Wennmohs         : Technical directorship


 We gratefully acknowledge several colleagues who have allowed us to
 interface, adapt or use parts of their codes:
   Stefan Grimme, W. Hujo, H. Kruse,             : VdW corrections, initial TS optimization,
                  C. Bannwarth                     DFT functionals, gCP, sTDA/sTD-DF
   Ed Valeev, F. Pavosevic, A. Kumar             : LibInt (2-el integral package), F12 methods
   Garnet Chan, S. Sharma, J. Yang, R. Olivares  : DMRG
   Ulf Ekstrom                                   : XCFun DFT Library
   Mihaly Kallay                                 : mrcc  (arbitrary order and MRCC methods)
   Andreas Klamt, Michael Diedenhofen            : otool_cosmo (COSMO solvation model)
   Jiri Pittner, Ondrej Demel                    : Mk-CCSD
   Frank Weinhold                                : gennbo (NPA and NBO analysis)
   Christopher J. Cramer and Donald G. Truhlar   : smd solvation model
   Lars Goerigk                                  : TD-DFT with DH, B97 family of functionals
   V. Asgeirsson, H. Jonsson                     : NEB implementation
   FAccTs GmbH                                   : IRC, NEB, NEB-TS, Multilevel, MM, QM/MM, CI optimization
   S Lehtola, MJT Oliveira, MAL Marques          : LibXC Library


 Your calculation uses the libint2 library for the computation of 2-el integrals
 For citations please refer to: http://libint.valeyev.net

 Your ORCA version has been built with support for libXC version: 4.2.3
 For citations please refer to: https://tddft.org/programs/libxc/

 This ORCA versions uses:
   CBLAS   interface :  Fast vector & matrix operations
   LAPACKE interface :  Fast linear algebra routines
   SCALAPACK package :  Parallel linear algebra routines


Your calculation utilizes the atom-pairwise dispersion correction
with the Becke-Johnson damping scheme (D3BJ)
Cite in your paper:
S.Grimme, S.Ehrlich, L.Goerigk, J Comput Chem, (2011), 32, 1456–1465 
S.Grimme, J.Antony, S.Ehrlich and H.Krieg, J.Chem.Phys., 132, (2010), 154104 
   

----- Orbital basis set information -----
Your calculation utilizes the basis: def2-TZVPPD
   F. Weigend and R. Ahlrichs, Phys. Chem. Chem. Phys. 7, 3297 (2005).
   D. Rappoport and F. Furche, J. Chem. Phys. 133 134105 (2010).

----- AuxJ basis set information -----
Your calculation utilizes the auxiliary basis: def2/J
   F. Weigend, Phys. Chem. Chem. Phys. 8, 1057 (2006).

================================================================================
                                        WARNINGS
                       Please study these warnings very carefully!
================================================================================


WARNING: your system is open-shell and RHF/RKS was chosen
  ===> : WILL SWITCH to UHF/UKS


INFO   : the flag for use of LIBINT has been found!

================================================================================
                                       INPUT FILE
================================================================================
NAME = 179_s.in
|  1> #
|  2> # 179_s TPSS-D3BJ/Def2-TZVPPD
|  3> #
|  4> ! tpss d3bj def2-tzvppd def2/j grid4 nofinalgrid
|  5> 
|  6> *xyz 0 3
|  7> S          0.00000        0.00000        0.96937
|  8> S          0.00000        0.00000       -0.96937
|  9> *
| 10> 
| 11> %maxcore 5000
| 12> 
| 13> %pal
| 14> nprocs = 24
| 15> end
| 16> 
| 17> 
| 18>                          ****END OF INPUT****
================================================================================

                       ****************************
                       * Single Point Calculation *
                       ****************************

---------------------------------
CARTESIAN COORDINATES (ANGSTROEM)
---------------------------------
  S      0.000000    0.000000    0.969370
  S      0.000000    0.000000   -0.969370

----------------------------
CARTESIAN COORDINATES (A.U.)
----------------------------
  NO LB      ZA    FRAG     MASS         X           Y           Z
   0 S    16.0000    0    32.060    0.000000    0.000000    1.831844
   1 S    16.0000    0    32.060    0.000000    0.000000   -1.831844

--------------------------------
INTERNAL COORDINATES (ANGSTROEM)
--------------------------------
 S      0   0   0     0.000000000000     0.00000000     0.00000000
 S      1   0   0     1.938740000000     0.00000000     0.00000000

---------------------------
INTERNAL COORDINATES (A.U.)
---------------------------
 S      0   0   0     0.000000000000     0.00000000     0.00000000
 S      1   0   0     3.663687644878     0.00000000     0.00000000

---------------------
BASIS SET INFORMATION
---------------------
There are 1 groups of distinct atoms

 Group   1 Type S   : 15s10p4d1f contracted to 6s6p4d1f pattern {732111/511111/1111/1}

Atom   0S    basis set group =>   1
Atom   1S    basis set group =>   1
---------------------------------
AUXILIARY/J BASIS SET INFORMATION
---------------------------------
There are 1 groups of distinct atoms

 Group   1 Type S   : 14s5p5d2f1g contracted to 8s4p3d1f1g pattern {71111111/2111/311/2/1}

Atom   0S    basis set group =>   1
Atom   1S    basis set group =>   1


           ************************************************************
           *        Program running with 24 parallel MPI-processes    *
           *              working on a common directory               *
           ************************************************************
------------------------------------------------------------------------------
                           ORCA GTO INTEGRAL CALCULATION
                           -- RI-GTO INTEGRALS CHOSEN --
------------------------------------------------------------------------------

                         BASIS SET STATISTICS AND STARTUP INFO

Gaussian basis set:
 # of primitive gaussian shells          ...   60
 # of primitive gaussian functions       ...  144
 # of contracted shells                  ...   34
 # of contracted basis functions         ...  102
 Highest angular momentum                ...    3
 Maximum contraction depth               ...    7
Auxiliary gaussian basis set:
 # of primitive gaussian shells          ...   54
 # of primitive gaussian functions       ...  154
 # of contracted shells                  ...   34
 # of contracted aux-basis functions     ...  102
 Highest angular momentum                ...    4
 Maximum contraction depth               ...    7
Ratio of auxiliary to basis functions    ...  1.00
Integral package used                  ... LIBINT
 One Electron integrals                  ... done
 Ordering auxiliary basis shells         ... done
 Integral threshhold             Thresh  ...  1.000e-10
 Primitive cut-off               TCut    ...  1.000e-11
 Pre-screening matrix                    ... done
 Shell pair data                         ... 
 Ordering of the shell pairs             ... done (   0.000 sec) 582 of 595 pairs
 Determination of significant pairs      ... done (   0.000 sec)
 Creation of shell pair data             ... done (   0.000 sec)
 Storage of shell pair data              ... done (   0.012 sec)
 Shell pair data done in (   0.012 sec)
 Computing two index integrals           ... done
 Cholesky decomposition of the V-matrix  ... done


Timings:
 Total evaluation time                   ...   0.182 sec (  0.003 min)
 One electron matrix time                ...   0.031 sec (  0.001 min) = 17.0%
 Schwartz matrix evaluation time         ...   0.111 sec (  0.002 min) = 61.1%
 Two index repulsion integral time       ...   0.000 sec (  0.000 min) =  0.3%
 Cholesky decomposition of V             ...   0.001 sec (  0.000 min) =  0.4%
 Three index repulsion integral time     ...   0.000 sec (  0.000 min) =  0.0%



           ************************************************************
           *        Program running with 24 parallel MPI-processes    *
           *              working on a common directory               *
           ************************************************************
-------------------------------------------------------------------------------
                                 ORCA SCF
-------------------------------------------------------------------------------

------------
SCF SETTINGS
------------
Hamiltonian:
 Density Functional     Method          .... DFT(GTOs)
 Exchange Functional    Exchange        .... TPSS
 Correlation Functional Correlation     .... TPSS
 LDA part of GGA corr.  LDAOpt          .... PW91-LDA
 Gradients option       PostSCFGGA      .... off
   Density functional embedding theory  .... OFF
   NL short-range parameter             ....  5.000000
 RI-approximation to the Coulomb term is turned on
   Number of auxiliary basis functions  .... 102


General Settings:
 Integral files         IntName         .... 179_s
 Hartree-Fock type      HFTyp           .... UHF
 Total Charge           Charge          ....    0
 Multiplicity           Mult            ....    3
 Number of Electrons    NEL             ....   32
 Basis Dimension        Dim             ....  102
 Nuclear Repulsion      ENuc            ....     69.8749524561 Eh

Convergence Acceleration:
 DIIS                   CNVDIIS         .... on
   Start iteration      DIISMaxIt       ....    12
   Startup error        DIISStart       ....  0.200000
   # of expansion vecs  DIISMaxEq       ....     5
   Bias factor          DIISBfac        ....   1.050
   Max. coefficient     DIISMaxC        ....  10.000
 Newton-Raphson         CNVNR           .... off
 SOSCF                  CNVSOSCF        .... off
 Level Shifting         CNVShift        .... on
   Level shift para.    LevelShift      ....    0.2500
   Turn off err/grad.   ShiftErr        ....    0.0010
 Zerner damping         CNVZerner       .... off
 Static damping         CNVDamp         .... on
   Fraction old density DampFac         ....    0.7000
   Max. Damping (<1)    DampMax         ....    0.9800
   Min. Damping (>=0)   DampMin         ....    0.0000
   Turn off err/grad.   DampErr         ....    0.1000
 Fernandez-Rico         CNVRico         .... off

SCF Procedure:
 Maximum # iterations   MaxIter         ....   125
 SCF integral mode      SCFMode         .... Direct
   Integral package                     .... LIBINT
 Reset frequency        DirectResetFreq ....    20
 Integral Threshold     Thresh          ....  1.000e-10 Eh
 Primitive CutOff       TCut            ....  1.000e-11 Eh

Convergence Tolerance:
 Convergence Check Mode ConvCheckMode   .... Total+1el-Energy
 Convergence forced     ConvForced      .... 0
 Energy Change          TolE            ....  1.000e-06 Eh
 1-El. energy change                    ....  1.000e-03 Eh
 DIIS Error             TolErr          ....  1.000e-06


Diagonalization of the overlap matrix:
Smallest eigenvalue                        ... 8.216e-04
Time for diagonalization                   ...    0.002 sec
Threshold for overlap eigenvalues          ... 1.000e-08
Number of eigenvalues below threshold      ... 0
Time for construction of square roots      ...    0.001 sec
Total time needed                          ...    0.004 sec

-------------------
DFT GRID GENERATION
-------------------

General Integration Accuracy     IntAcc      ...  4.670
Radial Grid Type                 RadialGrid  ... Gauss-Chebyshev
Angular Grid (max. acc.)         AngularGrid ... Lebedev-302
Angular grid pruning method      GridPruning ... 3 (G Style)
Weight generation scheme         WeightScheme... Becke
Basis function cutoff            BFCut       ...    1.0000e-10
Integration weight cutoff        WCut        ...    1.0000e-14
Grids for H and He will be reduced by one unit

# of grid points (after initial pruning)     ...  13692 (   0.0 sec)
# of grid points (after weights+screening)   ...  13666 (   0.0 sec)
nearest neighbour list constructed           ...    0.0 sec
Grid point re-assignment to atoms done       ...    0.0 sec
Grid point division into batches done        ...    0.1 sec
Reduced shell lists constructed in    0.1 sec

Total number of grid points                  ...    13666
Total number of batches                      ...      214
Average number of points per batch           ...       63
Average number of grid points per atom       ...     6833
Average number of shells per batch           ...     8.20 (24.12%)
Average number of basis functions per batch  ...    22.00 (21.57%)
Average number of large shells per batch     ...     6.40 (78.05%)
Average number of large basis fcns per batch ...    19.20 (87.27%)
Maximum spatial batch extension              ...  19.50, 19.55, 12.87 au
Average spatial batch extension              ...   0.66,  0.66,  0.47 au

Time for grid setup =    0.148 sec

------------------------------
INITIAL GUESS: MODEL POTENTIAL
------------------------------
Loading Hartree-Fock densities                     ... done
Calculating cut-offs                               ... done
Setting up the integral package                    ... done
Initializing the effective Hamiltonian             ... done
Starting the Coulomb interaction                   ... done (   0.0 sec)
Reading the grid                                   ... done
Mapping shells                                     ... done
Starting the XC term evaluation                    ... done (   0.0 sec)
  promolecular density results
     # of electrons  =     32.000016304
     EX              =    -49.735268983
     EC              =     -1.225861746
     EX+EC           =    -50.961130729
Transforming the Hamiltonian                       ... done (   0.0 sec)
Diagonalizing the Hamiltonian                      ... done (   0.0 sec)
Back transforming the eigenvectors                 ... done (   0.0 sec)
Now organizing SCF variables                       ... done
                      ------------------
                      INITIAL GUESS DONE (   0.3 sec)
                      ------------------
--------------
SCF ITERATIONS
--------------
ITER       Energy         Delta-E        Max-DP      RMS-DP      [F,P]     Damp
               ***  Starting incremental Fock matrix formation  ***
  0   -796.4394647816   0.000000000000 0.01173482  0.00023645  0.0389442 0.7000
  1   -796.4415191856  -0.002054403946 0.00915975  0.00018296  0.0272916 0.7000
                               ***Turning on DIIS***
  2   -796.4426555572  -0.001136371640 0.01920197  0.00038614  0.0191053 0.0000
  3   -796.4448970299  -0.002241472669 0.00386358  0.00009484  0.0088680 0.0000
  4   -796.4452254261  -0.000328396212 0.00094706  0.00003316  0.0013446 0.0000
  5   -796.4452512423  -0.000025816225 0.00088589  0.00002268  0.0002084 0.0000
  6   -796.4452576327  -0.000006390329 0.00015427  0.00000411  0.0000299 0.0000
                 **** Energy Check signals convergence ****

               *****************************************************
               *                     SUCCESS                       *
               *           SCF CONVERGED AFTER   7 CYCLES          *
               *****************************************************


----------------
TOTAL SCF ENERGY
----------------

Total Energy       :         -796.44525781 Eh          -21672.37727 eV

Components:
Nuclear Repulsion  :           69.87495246 Eh            1901.39412 eV
Electronic Energy  :         -866.32021027 Eh          -23573.77139 eV
One Electron Energy:        -1238.65356708 Eh          -33705.47711 eV
Two Electron Energy:          372.33335682 Eh           10131.70572 eV

Virial components:
Potential Energy   :        -1591.31293169 Eh          -43301.82629 eV
Kinetic Energy     :          794.86767388 Eh           21629.44903 eV
Virial Ratio       :            2.00198471


DFT components:
N(Alpha)           :       17.000005910595 electrons
N(Beta)            :       15.000005891404 electrons
N(Total)           :       32.000011801999 electrons
E(X)               :      -50.151885727726 Eh       
E(C)               :       -1.230112630977 Eh       
E(XC)              :      -51.381998358704 Eh       
DFET-embed. en.    :        0.000000000000 Eh       

---------------
SCF CONVERGENCE
---------------

  Last Energy change         ...   -1.7799e-07  Tolerance :   1.0000e-06
  Last MAX-Density change    ...    2.4015e-05  Tolerance :   1.0000e-05
  Last RMS-Density change    ...    6.3412e-07  Tolerance :   1.0000e-06
  Last DIIS Error            ...    8.6803e-06  Tolerance :   1.0000e-06

             **** THE GBW FILE WAS UPDATED (179_s.gbw) ****
             **** DENSITY FILE WAS UPDATED (179_s.scfp) ****
             **** ENERGY FILE WAS UPDATED (179_s.en.tmp) ****
----------------------
UHF SPIN CONTAMINATION
----------------------

Warning: in a DFT calculation there is little theoretical justification to 
         calculate <S**2> as in Hartree-Fock theory. We will do it anyways
         but you should keep in mind that the values have only limited relevance

Expectation value of <S**2>     :     2.006915
Ideal value S*(S+1) for S=1.0   :     2.000000
Deviation                       :     0.006915

             **** THE GBW FILE WAS UPDATED (179_s.gbw) ****
             **** DENSITY FILE WAS UPDATED (179_s.scfp) ****
----------------
ORBITAL ENERGIES
----------------
                 SPIN UP ORBITALS
  NO   OCC          E(Eh)            E(eV) 
   0   1.0000     -88.410831     -2405.7810 
   1   1.0000     -88.410819     -2405.7807 
   2   1.0000      -7.788231      -211.9285 
   3   1.0000      -7.788153      -211.9264 
   4   1.0000      -5.766213      -156.9066 
   5   1.0000      -5.765641      -156.8911 
   6   1.0000      -5.765590      -156.8897 
   7   1.0000      -5.765590      -156.8897 
   8   1.0000      -5.765551      -156.8886 
   9   1.0000      -5.765551      -156.8886 
  10   1.0000      -0.771355       -20.9896 
  11   1.0000      -0.590537       -16.0693 
  12   1.0000      -0.367730       -10.0064 
  13   1.0000      -0.340699        -9.2709 
  14   1.0000      -0.340699        -9.2709 
  15   1.0000      -0.223361        -6.0780 
  16   1.0000      -0.223361        -6.0780 
  17   0.0000      -0.053562        -1.4575 
  18   0.0000       0.013869         0.3774 
  19   0.0000       0.028782         0.7832 
  20   0.0000       0.028782         0.7832 
  21   0.0000       0.030307         0.8247 
  22   0.0000       0.041075         1.1177 
  23   0.0000       0.059603         1.6219 
  24   0.0000       0.059603         1.6219 
  25   0.0000       0.080587         2.1929 
  26   0.0000       0.080587         2.1929 
  27   0.0000       0.124442         3.3862 
  28   0.0000       0.124442         3.3862 
  29   0.0000       0.147788         4.0215 
  30   0.0000       0.177647         4.8340 
  31   0.0000       0.177650         4.8341 
  32   0.0000       0.181668         4.9434 
  33   0.0000       0.230695         6.2775 
  34   0.0000       0.236116         6.4250 
  35   0.0000       0.236116         6.4250 
  36   0.0000       0.330871         9.0035 
  37   0.0000       0.330871         9.0035 
  38   0.0000       0.361364         9.8332 
  39   0.0000       0.377252        10.2656 
  40   0.0000       0.377252        10.2656 
  41   0.0000       0.387242        10.5374 
  42   0.0000       0.387252        10.5377 
  43   0.0000       0.456929        12.4337 
  44   0.0000       0.456935        12.4338 
  45   0.0000       0.495014        13.4700 
  46   0.0000       0.495014        13.4700 
  47   0.0000       0.520618        14.1667 
  48   0.0000       0.521904        14.2017 
  49   0.0000       0.576624        15.6907 
  50   0.0000       0.576624        15.6907 
  51   0.0000       0.669401        18.2153 
  52   0.0000       0.695184        18.9169 
  53   0.0000       1.084722        29.5168 
  54   0.0000       1.384859        37.6839 
  55   0.0000       1.384864        37.6841 
  56   0.0000       1.413401        38.4606 
  57   0.0000       1.442181        39.2438 
  58   0.0000       1.442181        39.2438 
  59   0.0000       1.501793        40.8659 
  60   0.0000       1.501838        40.8671 
  61   0.0000       1.524617        41.4869 
  62   0.0000       1.524669        41.4884 
  63   0.0000       1.532702        41.7070 
  64   0.0000       1.532702        41.7070 
  65   0.0000       1.538124        41.8545 
  66   0.0000       1.538124        41.8545 
  67   0.0000       1.568628        42.6845 
  68   0.0000       1.604449        43.6593 
  69   0.0000       1.604449        43.6593 
  70   0.0000       1.624752        44.2118 
  71   0.0000       1.624752        44.2118 
  72   0.0000       1.807735        49.1910 
  73   0.0000       1.807735        49.1910 
  74   0.0000       1.811026        49.2805 
  75   0.0000       1.861646        50.6580 
  76   0.0000       1.861665        50.6585 
  77   0.0000       1.902237        51.7625 
  78   0.0000       1.902237        51.7625 
  79   0.0000       1.951074        53.0914 
  80   0.0000       2.371037        64.5192 
  81   0.0000       2.452301        66.7305 
  82   0.0000       2.452301        66.7305 
  83   0.0000       3.029049        82.4246 
  84   0.0000       6.598656       179.5586 
  85   0.0000       6.598671       179.5590 
  86   0.0000       6.628874       180.3808 
  87   0.0000       6.628889       180.3812 
  88   0.0000       6.635218       180.5535 
  89   0.0000       6.635218       180.5535 
  90   0.0000       6.649114       180.9316 
  91   0.0000       6.649114       180.9316 
  92   0.0000       6.661823       181.2774 
  93   0.0000       6.839484       186.1118 
  94   0.0000       8.714685       237.1386 
  95   0.0000       8.714685       237.1386 
  96   0.0000       8.843629       240.6474 
  97   0.0000       8.843629       240.6474 
  98   0.0000       8.997842       244.8437 
  99   0.0000       9.122244       248.2289 
 100   0.0000      18.187746       494.9137 
 101   0.0000      18.836009       512.5539 

                 SPIN DOWN ORBITALS
  NO   OCC          E(Eh)            E(eV) 
   0   1.0000     -88.404948     -2405.6209 
   1   1.0000     -88.404936     -2405.6206 
   2   1.0000      -7.783335      -211.7953 
   3   1.0000      -7.783253      -211.7931 
   4   1.0000      -5.763350      -156.8287 
   5   1.0000      -5.762773      -156.8130 
   6   1.0000      -5.756108      -156.6317 
   7   1.0000      -5.756108      -156.6317 
   8   1.0000      -5.756067      -156.6306 
   9   1.0000      -5.756067      -156.6306 
  10   1.0000      -0.747468       -20.3396 
  11   1.0000      -0.543580       -14.7916 
  12   1.0000      -0.348677        -9.4880 
  13   1.0000      -0.301761        -8.2113 
  14   1.0000      -0.301761        -8.2113 
  15   0.0000      -0.168623        -4.5885 
  16   0.0000      -0.168623        -4.5885 
  17   0.0000      -0.037385        -1.0173 
  18   0.0000       0.022648         0.6163 
  19   0.0000       0.035537         0.9670 
  20   0.0000       0.035537         0.9670 
  21   0.0000       0.038222         1.0401 
  22   0.0000       0.046905         1.2763 
  23   0.0000       0.068895         1.8747 
  24   0.0000       0.068895         1.8747 
  25   0.0000       0.099227         2.7001 
  26   0.0000       0.099229         2.7001 
  27   0.0000       0.141063         3.8385 
  28   0.0000       0.141063         3.8385 
  29   0.0000       0.156831         4.2676 
  30   0.0000       0.192308         5.2330 
  31   0.0000       0.199800         5.4368 
  32   0.0000       0.199800         5.4368 
  33   0.0000       0.239252         6.5104 
  34   0.0000       0.248030         6.7492 
  35   0.0000       0.248030         6.7492 
  36   0.0000       0.342568         9.3218 
  37   0.0000       0.342568         9.3218 
  38   0.0000       0.370900        10.0927 
  39   0.0000       0.398020        10.8307 
  40   0.0000       0.398020        10.8307 
  41   0.0000       0.420298        11.4369 
  42   0.0000       0.420300        11.4369 
  43   0.0000       0.500180        13.6106 
  44   0.0000       0.500180        13.6106 
  45   0.0000       0.517038        14.0693 
  46   0.0000       0.517038        14.0693 
  47   0.0000       0.532737        14.4965 
  48   0.0000       0.533483        14.5168 
  49   0.0000       0.604537        16.4503 
  50   0.0000       0.604537        16.4503 
  51   0.0000       0.693492        18.8709 
  52   0.0000       0.716576        19.4990 
  53   0.0000       1.106244        30.1024 
  54   0.0000       1.418115        38.5889 
  55   0.0000       1.418125        38.5891 
  56   0.0000       1.432713        38.9861 
  57   0.0000       1.465484        39.8778 
  58   0.0000       1.465484        39.8778 
  59   0.0000       1.534519        41.7564 
  60   0.0000       1.534561        41.7575 
  61   0.0000       1.557193        42.3734 
  62   0.0000       1.557194        42.3734 
  63   0.0000       1.559460        42.4351 
  64   0.0000       1.559506        42.4363 
  65   0.0000       1.584072        43.1048 
  66   0.0000       1.587007        43.1847 
  67   0.0000       1.587007        43.1847 
  68   0.0000       1.627372        44.2830 
  69   0.0000       1.627372        44.2830 
  70   0.0000       1.676129        45.6098 
  71   0.0000       1.676129        45.6098 
  72   0.0000       1.828224        49.7485 
  73   0.0000       1.837042        49.9885 
  74   0.0000       1.837042        49.9885 
  75   0.0000       1.900473        51.7145 
  76   0.0000       1.900498        51.7152 
  77   0.0000       1.930490        52.5313 
  78   0.0000       1.930490        52.5313 
  79   0.0000       1.974334        53.7244 
  80   0.0000       2.390839        65.0580 
  81   0.0000       2.484717        67.6126 
  82   0.0000       2.484717        67.6126 
  83   0.0000       3.055801        83.1526 
  84   0.0000       6.615112       180.0064 
  85   0.0000       6.615137       180.0070 
  86   0.0000       6.645702       180.8388 
  87   0.0000       6.645727       180.8394 
  88   0.0000       6.645868       180.8433 
  89   0.0000       6.645868       180.8433 
  90   0.0000       6.659791       181.2221 
  91   0.0000       6.659791       181.2221 
  92   0.0000       6.671351       181.5367 
  93   0.0000       6.849923       186.3959 
  94   0.0000       8.735708       237.7107 
  95   0.0000       8.735708       237.7107 
  96   0.0000       8.865169       241.2335 
  97   0.0000       8.865169       241.2335 
  98   0.0000       9.010217       245.1805 
  99   0.0000       9.134669       248.5670 
 100   0.0000      18.201007       495.2746 
 101   0.0000      18.850131       512.9382 

                    ********************************
                    * MULLIKEN POPULATION ANALYSIS *
                    ********************************

--------------------------------------------
MULLIKEN ATOMIC CHARGES AND SPIN POPULATIONS
--------------------------------------------
   0 S :   -0.000000    0.999999
   1 S :    0.000000    1.000001
Sum of atomic charges         :   -0.0000000
Sum of atomic spin populations:    2.0000000

-----------------------------------------------------
MULLIKEN REDUCED ORBITAL CHARGES AND SPIN POPULATIONS
-----------------------------------------------------
CHARGE
  0 S s       :     5.958027  s :     5.958027
      pz      :     3.012322  p :     9.922374
      px      :     3.455026
      py      :     3.455026
      dz2     :     0.026246  d :     0.109313
      dxz     :     0.041534
      dyz     :     0.041534
      dx2y2   :     0.000000
      dxy     :     0.000000
      f0      :     0.003405  f :     0.010286
      f+1     :     0.003440
      f-1     :     0.003440
      f+2     :     0.000000
      f-2     :     0.000000
      f+3     :     0.000000
      f-3     :     0.000000
  1 S s       :     5.958027  s :     5.958027
      pz      :     3.012321  p :     9.922373
      px      :     3.455026
      py      :     3.455026
      dz2     :     0.026246  d :     0.109313
      dxz     :     0.041534
      dyz     :     0.041534
      dx2y2   :     0.000000
      dxy     :     0.000000
      f0      :     0.003405  f :     0.010286
      f+1     :     0.003440
      f-1     :     0.003440
      f+2     :     0.000000
      f-2     :     0.000000
      f+3     :     0.000000
      f-3     :     0.000000

SPIN
  0 S s       :     0.002245  s :     0.002245
      pz      :    -0.001253  p :     0.991774
      px      :     0.496513
      py      :     0.496513
      dz2     :    -0.000269  d :     0.007458
      dxz     :     0.003863
      dyz     :     0.003863
      dx2y2   :     0.000000
      dxy     :    -0.000000
      f0      :    -0.000725  f :    -0.001479
      f+1     :    -0.000377
      f-1     :    -0.000377
      f+2     :    -0.000000
      f-2     :    -0.000000
      f+3     :     0.000000
      f-3     :     0.000000
  1 S s       :     0.002247  s :     0.002247
      pz      :    -0.001253  p :     0.991774
      px      :     0.496513
      py      :     0.496513
      dz2     :    -0.000268  d :     0.007458
      dxz     :     0.003863
      dyz     :     0.003863
      dx2y2   :    -0.000000
      dxy     :     0.000000
      f0      :    -0.000725  f :    -0.001479
      f+1     :    -0.000377
      f-1     :    -0.000377
      f+2     :    -0.000000
      f-2     :     0.000000
      f+3     :     0.000000
      f-3     :     0.000000


                     *******************************
                     * LOEWDIN POPULATION ANALYSIS *
                     *******************************

-------------------------------------------
LOEWDIN ATOMIC CHARGES AND SPIN POPULATIONS
-------------------------------------------
   0 S :   -0.000000    1.000000
   1 S :    0.000000    1.000000

----------------------------------------------------
LOEWDIN REDUCED ORBITAL CHARGES AND SPIN POPULATIONS
----------------------------------------------------
CHARGE
  0 S s       :     5.571331  s :     5.571331
      pz      :     3.218569  p :     9.945390
      px      :     3.363411
      py      :     3.363411
      dz2     :     0.197233  d :     0.453166
      dxz     :     0.127967
      dyz     :     0.127967
      dx2y2   :     0.000000
      dxy     :     0.000000
      f0      :     0.012867  f :     0.030113
      f+1     :     0.008623
      f-1     :     0.008623
      f+2     :     0.000000
      f-2     :     0.000000
      f+3     :     0.000000
      f-3     :     0.000000
  1 S s       :     5.571331  s :     5.571331
      pz      :     3.218569  p :     9.945390
      px      :     3.363411
      py      :     3.363411
      dz2     :     0.197233  d :     0.453166
      dxz     :     0.127967
      dyz     :     0.127967
      dx2y2   :     0.000000
      dxy     :     0.000000
      f0      :     0.012867  f :     0.030113
      f+1     :     0.008623
      f-1     :     0.008623
      f+2     :     0.000000
      f-2     :     0.000000
      f+3     :     0.000000
      f-3     :     0.000000

SPIN
  0 S s       :     0.005602  s :     0.005602
      pz      :    -0.007213  p :     0.867965
      px      :     0.437589
      py      :     0.437589
      dz2     :     0.002358  d :     0.122173
      dxz     :     0.059907
      dyz     :     0.059907
      dx2y2   :     0.000000
      dxy     :    -0.000000
      f0      :    -0.000748  f :     0.004260
      f+1     :     0.002504
      f-1     :     0.002504
      f+2     :    -0.000000
      f-2     :    -0.000000
      f+3     :     0.000000
      f-3     :     0.000000
  1 S s       :     0.005603  s :     0.005603
      pz      :    -0.007213  p :     0.867965
      px      :     0.437589
      py      :     0.437589
      dz2     :     0.002358  d :     0.122173
      dxz     :     0.059907
      dyz     :     0.059907
      dx2y2   :    -0.000000
      dxy     :     0.000000
      f0      :    -0.000748  f :     0.004260
      f+1     :     0.002504
      f-1     :     0.002504
      f+2     :    -0.000000
      f-2     :     0.000000
      f+3     :     0.000000
      f-3     :     0.000000


                      *****************************
                      * MAYER POPULATION ANALYSIS *
                      *****************************

  NA   - Mulliken gross atomic population
  ZA   - Total nuclear charge
  QA   - Mulliken gross atomic charge
  VA   - Mayer's total valence
  BVA  - Mayer's bonded valence
  FA   - Mayer's free valence

  ATOM       NA         ZA         QA         VA         BVA        FA
  0 S     16.0000    16.0000    -0.0000     2.4760     1.9254     0.5506
  1 S     16.0000    16.0000     0.0000     2.4760     1.9254     0.5506

  Mayer bond orders larger than 0.100000
B(  0-S ,  1-S ) :   1.9254 

-------
TIMINGS
-------

Total SCF time: 0 days 0 hours 0 min 1 sec 

Total time                  ....       1.175 sec
Sum of individual times     ....       1.068 sec  ( 90.9%)

Fock matrix formation       ....       0.758 sec  ( 64.6%)
  Split-RI-J                ....       0.593 sec  ( 78.2% of F)
  XC integration            ....       0.133 sec  ( 17.5% of F)
    Basis function eval.    ....       0.008 sec  (  5.9% of XC)
    Density eval.           ....       0.018 sec  ( 13.7% of XC)
    XC-Functional eval.     ....       0.008 sec  (  6.2% of XC)
    XC-Potential eval.      ....       0.045 sec  ( 33.8% of XC)
Diagonalization             ....       0.021 sec  (  1.8%)
Density matrix formation    ....       0.004 sec  (  0.4%)
Population analysis         ....       0.005 sec  (  0.4%)
Initial guess               ....       0.126 sec  ( 10.7%)
Orbital Transformation      ....       0.000 sec  (  0.0%)
Orbital Orthonormalization  ....       0.000 sec  (  0.0%)
DIIS solution               ....       0.006 sec  (  0.5%)
Grid generation             ....       0.148 sec  ( 12.6%)


-------------------------------------------------------------------------------
                          DFT DISPERSION CORRECTION                            
                                                                               
                              DFTD3 V3.1  Rev 1                                
                          USING Becke-Johnson damping                          
-------------------------------------------------------------------------------
The TPSS functional is recognized
Active option DFTDOPT                   ...         4   

molecular C6(AA) [au] = 523.805276 


            DFT-D V3
 parameters
 s6 scaling factor         :     1.0000 
 a1 scaling factor         :     0.4535 
 s8 scaling factor         :     1.9435 
 a2 scaling factor         :     4.4752 
 ad hoc parameters k1-k3   :    16.0000     1.3333    -4.0000 

 Edisp/kcal,au: -1.070864189008  -0.001706530529 
 E6   /kcal   :  -0.405275116 
 E8   /kcal   :  -0.665589073 
 % E8         :  62.154387104 

-------------------------   ----------------
Dispersion correction           -0.001706531
-------------------------   ----------------


-------------------------   --------------------
FINAL SINGLE POINT ENERGY      -796.446964341171
-------------------------   --------------------


                            ***************************************
                            *     ORCA property calculations      *
                            ***************************************

                                    ---------------------
                                    Active property flags
                                    ---------------------
   (+) Dipole Moment


------------------------------------------------------------------------------
                       ORCA ELECTRIC PROPERTIES CALCULATION
------------------------------------------------------------------------------

Dipole Moment Calculation                       ... on
Quadrupole Moment Calculation                   ... off
Polarizability Calculation                      ... off
GBWName                                         ... 179_s.gbw
Electron density file                           ... 179_s.scfp
The origin for moment calculation is the CENTER OF MASS  = ( 0.000000,  0.000000  0.000000)

-------------
DIPOLE MOMENT
-------------
                                X             Y             Z
Electronic contribution:     -0.00000       0.00000       0.00000
Nuclear contribution   :      0.00000       0.00000       0.00000
                        -----------------------------------------
Total Dipole Moment    :     -0.00000       0.00000       0.00000
                        -----------------------------------------
Magnitude (a.u.)       :      0.00000
Magnitude (Debye)      :      0.00000



--------------------
Rotational spectrum 
--------------------
 
Rotational constants in cm-1:     0.000000     0.279785     0.279785 
Rotational constants in MHz :     0.000000  8387.739618  8387.739618 

 Dipole components along the rotational axes: 
x,y,z [a.u.] :     0.000000     0.000000    -0.000000 
x,y,z [Debye]:     0.000000     0.000000    -0.000000 

 

Timings for individual modules:

Sum of individual times         ...        2.252 sec (=   0.038 min)
GTO integral calculation        ...        0.638 sec (=   0.011 min)  28.3 %
SCF iterations                  ...        1.614 sec (=   0.027 min)  71.7 %
                             ****ORCA TERMINATED NORMALLY****
TOTAL RUN TIME: 0 days 0 hours 0 minutes 2 seconds 827 msec
