
                                 *****************
                                 * O   R   C   A *
                                 *****************

           --- An Ab Initio, DFT and Semiempirical electronic structure package ---

                  #######################################################
                  #                        -***-                        #
                  #          Department of theory and spectroscopy      #
                  #               Directorship: Frank Neese             #
                  #        Max Planck Institute fuer Kohlenforschung    #
                  #                Kaiser Wilhelm Platz 1               #
                  #                 D-45470 Muelheim/Ruhr               #
                  #                      Germany                        #
                  #                                                     #
                  #                  All rights reserved                #
                  #                        -***-                        #
                  #######################################################


                         Program Version 4.2.0 -  RELEASE  -


 With contributions from (in alphabetic order):
   Daniel Aravena         : Magnetic Suceptibility
   Michael Atanasov       : Ab Initio Ligand Field Theory (pilot matlab implementation)
   Alexander A. Auer      : GIAO ZORA, VPT2
   Ute Becker             : Parallelization
   Giovanni Bistoni       : ED, misc. LED, open-shell LED, HFLED
   Martin Brehm           : Molecular dynamics
   Dmytro Bykov           : SCF Hessian
   Vijay G. Chilkuri      : MRCI spin determinant printing, contributions to CSF-ICE
   Dipayan Datta          : RHF DLPNO-CCSD density
   Achintya Kumar Dutta   : EOM-CC, STEOM-CC
   Dmitry Ganyushin       : Spin-Orbit,Spin-Spin,Magnetic field MRCI
   Miquel Garcia          : C-PCM Hessian, Gaussian charge scheme
   Yang Guo               : DLPNO-NEVPT2, CIM, IAO-localization
   Andreas Hansen         : Spin unrestricted coupled pair/coupled cluster methods
   Benjamin Helmich-Paris : CASSCF linear response (MC-RPA)
   Lee Huntington         : MR-EOM, pCC
   Robert Izsak           : Overlap fitted RIJCOSX, COSX-SCS-MP3, EOM
   Christian Kollmar      : KDIIS, OOCD, Brueckner-CCSD(T), CCSD density
   Simone Kossmann        : Meta GGA functionals, TD-DFT gradient, OOMP2, MP2 Hessian
   Martin Krupicka        : AUTO-CI
   Lucas Lang             : DCDCAS
   Dagmar Lenk            : GEPOL surface, SMD
   Dimitrios Liakos       : Extrapolation schemes; Compound Job, initial MDCI parallelization
   Dimitrios Manganas     : Further ROCIS development; embedding schemes
   Dimitrios Pantazis     : SARC Basis sets
   Taras Petrenko         : DFT Hessian,TD-DFT gradient, ASA, ECA, R-Raman, ABS, FL, XAS/XES, NRVS
   Peter Pinski           : DLPNO-MP2, DLPNO-MP2 Gradient
   Christoph Reimann      : Effective Core Potentials
   Marius Retegan         : Local ZFS, SOC
   Christoph Riplinger    : Optimizer, TS searches, QM/MM, DLPNO-CCSD(T), (RO)-DLPNO pert. Triples
   Tobias Risthaus        : Range-separated hybrids, TD-DFT gradient, RPA, STAB
   Michael Roemelt        : Original ROCIS implementation
   Masaaki Saitow         : Open-shell DLPNO-CCSD energy and density
   Barbara Sandhoefer     : DKH picture change effects
   Avijit Sen             : IP-ROCIS
   Kantharuban Sivalingam : CASSCF convergence, NEVPT2, FIC-MRCI
   Bernardo de Souza      : ESD, SOC TD-DFT
   Georgi Stoychev        : AutoAux, RI-MP2 NMR
   Willem Van den Heuvel  : Paramagnetic NMR
   Boris Wezisla          : Elementary symmetry handling
   Frank Wennmohs         : Technical directorship


 We gratefully acknowledge several colleagues who have allowed us to
 interface, adapt or use parts of their codes:
   Stefan Grimme, W. Hujo, H. Kruse,             : VdW corrections, initial TS optimization,
                  C. Bannwarth                     DFT functionals, gCP, sTDA/sTD-DF
   Ed Valeev, F. Pavosevic, A. Kumar             : LibInt (2-el integral package), F12 methods
   Garnet Chan, S. Sharma, J. Yang, R. Olivares  : DMRG
   Ulf Ekstrom                                   : XCFun DFT Library
   Mihaly Kallay                                 : mrcc  (arbitrary order and MRCC methods)
   Andreas Klamt, Michael Diedenhofen            : otool_cosmo (COSMO solvation model)
   Jiri Pittner, Ondrej Demel                    : Mk-CCSD
   Frank Weinhold                                : gennbo (NPA and NBO analysis)
   Christopher J. Cramer and Donald G. Truhlar   : smd solvation model
   Lars Goerigk                                  : TD-DFT with DH, B97 family of functionals
   V. Asgeirsson, H. Jonsson                     : NEB implementation
   FAccTs GmbH                                   : IRC, NEB, NEB-TS, Multilevel, MM, QM/MM, CI optimization
   S Lehtola, MJT Oliveira, MAL Marques          : LibXC Library


 Your calculation uses the libint2 library for the computation of 2-el integrals
 For citations please refer to: http://libint.valeyev.net

 Your ORCA version has been built with support for libXC version: 4.2.3
 For citations please refer to: https://tddft.org/programs/libxc/

 This ORCA versions uses:
   CBLAS   interface :  Fast vector & matrix operations
   LAPACKE interface :  Fast linear algebra routines
   SCALAPACK package :  Parallel linear algebra routines


Your calculation utilizes the atom-pairwise dispersion correction
with the Becke-Johnson damping scheme (D3BJ)
Cite in your paper:
S.Grimme, S.Ehrlich, L.Goerigk, J Comput Chem, (2011), 32, 1456–1465 
S.Grimme, J.Antony, S.Ehrlich and H.Krieg, J.Chem.Phys., 132, (2010), 154104 
   

----- Orbital basis set information -----
Your calculation utilizes the basis: def2-TZVPPD
   F. Weigend and R. Ahlrichs, Phys. Chem. Chem. Phys. 7, 3297 (2005).
   D. Rappoport and F. Furche, J. Chem. Phys. 133 134105 (2010).

----- AuxC basis set information -----
Your calculation utilizes the auxiliary basis: def2-TZVPPD/C
   A. Hellweg, C. Hattig, S. Hofener and W. Klopper, Theor. Chem. Acc. 117, 587 (2007).

----- AuxJK basis set information -----
Your calculation utilizes the auxiliary basis: def2/JK
   H-Ba, Hf-Rn: F. Weigend, J. Comput. Chem. 29, 167 (2008).

================================================================================
                                        WARNINGS
                       Please study these warnings very carefully!
================================================================================


WARNING: No MP2 level density has been requested!
         To caclulate MP2 level properties use
         %mp2 Density relaxed end
         or
         %mp2 Density unrelaxed end
         Otherwise for double-hybrid DFT only the energy is correct!

WARNING: There are different parametrizations of Gershom Martin's DSD-DFs
         for use with and without D3(BJ)!
         You are using the D3(BJ) parametrized version,
         consistent with the 2013 article (S. Kozuch and J. M. L. Martin, JCC 2013, 34, 2327)

WARNING: The frozen-core approximation is turned on by default for 
         the MP2 part of double-hybrid DFT.

INFO   : the flag for use of LIBINT has been found!

================================================================================
                                       INPUT FILE
================================================================================
NAME = 050.in
|  1> #
|  2> # 050 ri-DSD-BLYP/2013-D3BJ/Def2-TZVPPD
|  3> #
|  4> ! rijk ri-dsd-blyp/2013 d3bj def2-tzvppd def2/jk def2-tzvppd/c grid4 nofinalgrid
|  5> 
|  6> *xyz 0 1
|  7> H          0.20940       -0.52586       -2.49943
|  8> Cl        -0.00687       -1.57667        0.66924
|  9> H         -0.20240       -1.10325       -2.75186
| 10> H         -1.52841        1.31136        0.17964
| 11> H          1.18008        1.27520       -0.42375
| 12> H          0.01798       -1.62546        1.96923
| 13> Al        -0.00655        1.11839        0.64244
| 14> H          0.33679        1.12629        2.21448
| 15> *
| 16> 
| 17> %maxcore 5000
| 18> 
| 19> %pal
| 20> nprocs = 24
| 21> end
| 22> 
| 23> 
| 24>                          ****END OF INPUT****
================================================================================

                       ****************************
                       * Single Point Calculation *
                       ****************************

---------------------------------
CARTESIAN COORDINATES (ANGSTROEM)
---------------------------------
  H      0.209400   -0.525860   -2.499430
  Cl    -0.006870   -1.576670    0.669240
  H     -0.202400   -1.103250   -2.751860
  H     -1.528410    1.311360    0.179640
  H      1.180080    1.275200   -0.423750
  H      0.017980   -1.625460    1.969230
  Al    -0.006550    1.118390    0.642440
  H      0.336790    1.126290    2.214480

----------------------------
CARTESIAN COORDINATES (A.U.)
----------------------------
  NO LB      ZA    FRAG     MASS         X           Y           Z
   0 H     1.0000    0     1.008    0.395709   -0.993731   -4.723238
   1 Cl   17.0000    0    35.453   -0.012982   -2.979475    1.264680
   2 H     1.0000    0     1.008   -0.382481   -2.084840   -5.200262
   3 H     1.0000    0     1.008   -2.888276    2.478111    0.339470
   4 H     1.0000    0     1.008    2.230028    2.409779   -0.800771
   5 H     1.0000    0     1.008    0.033977   -3.071674    3.721305
   6 Al   13.0000    0    26.982   -0.012378    2.113451    1.214036
   7 H     1.0000    0     1.008    0.636441    2.128380    4.184761

--------------------------------
INTERNAL COORDINATES (ANGSTROEM)
--------------------------------
 H      0   0   0     0.000000000000     0.00000000     0.00000000
 Cl     1   0   0     3.345361555632     0.00000000     0.00000000
 H      1   2   0     0.752781081723    92.36865981     0.00000000
 H      2   1   3     3.300834653917    67.32403429   245.30790841
 H      4   2   1     2.775122541042    64.59344382   301.08703803
 H      2   1   3     1.301142569706   163.11464032   197.23926740
 Al     4   2   1     1.602335520576    54.12525358   268.15429139
 H      7   4   2     1.609116070145   118.96253488   266.37679230

---------------------------
INTERNAL COORDINATES (A.U.)
---------------------------
 H      0   0   0     0.000000000000     0.00000000     0.00000000
 Cl     1   0   0     6.321817159093     0.00000000     0.00000000
 H      1   2   0     1.422550083253    92.36865981     0.00000000
 H      2   1   3     6.237673509260    67.32403429   245.30790841
 H      4   2   1     5.244221590641    64.59344382   301.08703803
 H      2   1   3     2.458803117930   163.11464032   197.23926740
 Al     4   2   1     3.027975308543    54.12525358   268.15429139
 H      7   4   2     3.040788690266   118.96253488   266.37679230

---------------------
BASIS SET INFORMATION
---------------------
There are 3 groups of distinct atoms

 Group   1 Type H   : 5s3p1d contracted to 3s3p1d pattern {311/111/1}
 Group   2 Type Cl  : 15s10p4d1f contracted to 6s6p4d1f pattern {732111/511111/1111/1}
 Group   3 Type Al  : 15s9p4d1f contracted to 6s5p4d1f pattern {732111/51111/1111/1}

Atom   0H    basis set group =>   1
Atom   1Cl   basis set group =>   2
Atom   2H    basis set group =>   1
Atom   3H    basis set group =>   1
Atom   4H    basis set group =>   1
Atom   5H    basis set group =>   1
Atom   6Al   basis set group =>   3
Atom   7H    basis set group =>   1
---------------------------------
AUXILIARY/C BASIS SET INFORMATION
---------------------------------
There are 3 groups of distinct atoms

 Group   1 Type H   : 5s4p3d1f contracted to 5s4p3d1f pattern {11111/1111/111/1}
 Group   2 Type Cl  : 12s9p8d6f2g contracted to 12s9p8d6f2g pattern {111111111111/111111111/11111111/111111/11}
 Group   3 Type Al  : 12s9p8d6f2g contracted to 12s9p8d6f2g pattern {111111111111/111111111/11111111/111111/11}

Atom   0H    basis set group =>   1
Atom   1Cl   basis set group =>   2
Atom   2H    basis set group =>   1
Atom   3H    basis set group =>   1
Atom   4H    basis set group =>   1
Atom   5H    basis set group =>   1
Atom   6Al   basis set group =>   3
Atom   7H    basis set group =>   1
----------------------------------
AUXILIARY/JK BASIS SET INFORMATION
----------------------------------
There are 3 groups of distinct atoms

 Group   1 Type H   : 4s2p2d contracted to 2s2p2d pattern {31/11/11}
 Group   2 Type Cl  : 16s12p10d4f1g contracted to 13s11p9d4f1g pattern {4111111111111/21111111111/211111111/1111/1}
 Group   3 Type Al  : 16s12p10d4f1g contracted to 13s11p9d4f1g pattern {4111111111111/21111111111/211111111/1111/1}

Atom   0H    basis set group =>   1
Atom   1Cl   basis set group =>   2
Atom   2H    basis set group =>   1
Atom   3H    basis set group =>   1
Atom   4H    basis set group =>   1
Atom   5H    basis set group =>   1
Atom   6Al   basis set group =>   3
Atom   7H    basis set group =>   1


           ************************************************************
           *        Program running with 24 parallel MPI-processes    *
           *              working on a common directory               *
           ************************************************************
------------------------------------------------------------------------------
                           ORCA GTO INTEGRAL CALCULATION
                           -- RI-GTO INTEGRALS CHOSEN --
------------------------------------------------------------------------------

                         BASIS SET STATISTICS AND STARTUP INFO

Gaussian basis set:
 # of primitive gaussian shells          ...  113
 # of primitive gaussian functions       ...  255
 # of contracted shells                  ...   75
 # of contracted basis functions         ...  201
 Highest angular momentum                ...    3
 Maximum contraction depth               ...    7
Auxiliary gaussian basis set:
 # of primitive gaussian shells          ...  134
 # of primitive gaussian functions       ...  398
 # of contracted shells                  ...  112
 # of contracted aux-basis functions     ...  364
 Highest angular momentum                ...    4
 Maximum contraction depth               ...    4
Ratio of auxiliary to basis functions    ...  1.81
Integral package used                  ... LIBINT
 One Electron integrals                  ... done
 Ordering auxiliary basis shells         ... done
 Integral threshhold             Thresh  ...  1.000e-10
 Primitive cut-off               TCut    ...  1.000e-11
 Pre-screening matrix                    ... done
 Shell pair data                         ... 
 Ordering of the shell pairs             ... done (   0.001 sec) 2647 of 2850 pairs
 Determination of significant pairs      ... done (   0.000 sec)
 Creation of shell pair data             ... done (   0.000 sec)
 Storage of shell pair data              ... done (   0.015 sec)
 Shell pair data done in (   0.016 sec)
 Computing two index integrals           ... done
 Cholesky decomposition of the V-matrix  ... done


Timings:
 Total evaluation time                   ...   0.217 sec (  0.004 min)
 One electron matrix time                ...   0.025 sec (  0.000 min) = 11.6%
 Schwartz matrix evaluation time         ...   0.142 sec (  0.002 min) = 65.4%
 Two index repulsion integral time       ...   0.003 sec (  0.000 min) =  1.3%
 Cholesky decomposition of V             ...   0.002 sec (  0.000 min) =  1.1%
 Three index repulsion integral time     ...   0.000 sec (  0.000 min) =  0.0%



           ************************************************************
           *        Program running with 24 parallel MPI-processes    *
           *              working on a common directory               *
           ************************************************************
-------------------------------------------------------------------------------
                                 ORCA SCF
-------------------------------------------------------------------------------

------------
SCF SETTINGS
------------
Hamiltonian:
 Density Functional     Method          .... DFT(GTOs)
 Exchange Functional    Exchange        .... B88
   X-Alpha parameter    XAlpha          ....  0.666667
   Becke's b parameter  XBeta           ....  0.004200
 Correlation Functional Correlation     .... LYP
 LDA part of GGA corr.  LDAOpt          .... VWN-5
 Gradients option       PostSCFGGA      .... off
 Hybrid DFT is turned on
   Fraction HF Exchange ScalHFX         ....  0.710000
   Scaling of DF-GGA-X  ScalDFX         ....  0.290000
   Scaling of DF-GGA-C  ScalDFC         ....  0.540000
   Scaling of DF-LDA-C  ScalLDAC        ....  0.540000
   Perturbative correction              ....  1.000000
   Density functional embedding theory  .... OFF
 RI-approximation to the Coulomb term is turned on
   Number of auxiliary basis functions  .... 364
   RI-JK (J+K treated both via RI)      .... on


General Settings:
 Integral files         IntName         .... 050
 Hartree-Fock type      HFTyp           .... RHF
 Total Charge           Charge          ....    0
 Multiplicity           Mult            ....    1
 Number of Electrons    NEL             ....   36
 Basis Dimension        Dim             ....  201
 Nuclear Repulsion      ENuc            ....     85.4583548137 Eh

Convergence Acceleration:
 DIIS                   CNVDIIS         .... on
   Start iteration      DIISMaxIt       ....    12
   Startup error        DIISStart       ....  0.200000
   # of expansion vecs  DIISMaxEq       ....     5
   Bias factor          DIISBfac        ....   1.050
   Max. coefficient     DIISMaxC        ....  10.000
 Newton-Raphson         CNVNR           .... off
 SOSCF                  CNVSOSCF        .... on
   Start iteration      SOSCFMaxIt      ....   150
   Startup grad/error   SOSCFStart      ....  0.003300
 Level Shifting         CNVShift        .... on
   Level shift para.    LevelShift      ....    0.2500
   Turn off err/grad.   ShiftErr        ....    0.0010
 Zerner damping         CNVZerner       .... off
 Static damping         CNVDamp         .... on
   Fraction old density DampFac         ....    0.7000
   Max. Damping (<1)    DampMax         ....    0.9800
   Min. Damping (>=0)   DampMin         ....    0.0000
   Turn off err/grad.   DampErr         ....    0.1000
 Fernandez-Rico         CNVRico         .... off

SCF Procedure:
 Maximum # iterations   MaxIter         ....   125
 SCF integral mode      SCFMode         .... Direct
   Integral package                     .... LIBINT
 Reset frequency        DirectResetFreq ....    20
 Integral Threshold     Thresh          ....  1.000e-10 Eh
 Primitive CutOff       TCut            ....  1.000e-11 Eh

Convergence Tolerance:
 Convergence Check Mode ConvCheckMode   .... Total+1el-Energy
 Convergence forced     ConvForced      .... 0
 Energy Change          TolE            ....  1.000e-06 Eh
 1-El. energy change                    ....  1.000e-03 Eh
 Orbital Gradient       TolG            ....  5.000e-05
 Orbital Rotation angle TolX            ....  5.000e-05
 DIIS Error             TolErr          ....  1.000e-06


Diagonalization of the overlap matrix:
Smallest eigenvalue                        ... 1.243e-04
Time for diagonalization                   ...    0.007 sec
Threshold for overlap eigenvalues          ... 1.000e-08
Number of eigenvalues below threshold      ... 0
Time for construction of square roots      ...    0.005 sec
Total time needed                          ...    0.013 sec

-------------------
DFT GRID GENERATION
-------------------

General Integration Accuracy     IntAcc      ...  4.670
Radial Grid Type                 RadialGrid  ... Gauss-Chebyshev
Angular Grid (max. acc.)         AngularGrid ... Lebedev-302
Angular grid pruning method      GridPruning ... 3 (G Style)
Weight generation scheme         WeightScheme... Becke
Basis function cutoff            BFCut       ...    1.0000e-10
Integration weight cutoff        WCut        ...    1.0000e-14
Grids for H and He will be reduced by one unit

# of grid points (after initial pruning)     ...  33948 (   0.0 sec)
# of grid points (after weights+screening)   ...  32957 (   0.0 sec)
nearest neighbour list constructed           ...    0.0 sec
Grid point re-assignment to atoms done       ...    0.0 sec
Grid point division into batches done        ...    0.1 sec
Reduced shell lists constructed in    0.1 sec

Total number of grid points                  ...    32957
Total number of batches                      ...      519
Average number of points per batch           ...       63
Average number of grid points per atom       ...     4120
Average number of shells per batch           ...    40.91 (54.55%)
Average number of basis functions per batch  ...   107.78 (53.62%)
Average number of large shells per batch     ...    33.52 (81.93%)
Average number of large basis fcns per batch ...    88.57 (82.17%)
Average number of aux-shells per batch       ...    40.91 (36.53%)
Average number of aux functions per batch    ...   107.78 (29.61%)
Maximum spatial batch extension              ...  17.21, 15.07, 16.99 au
Average spatial batch extension              ...   0.24,  0.21,  0.23 au

Time for grid setup =    0.242 sec

------------------------------
INITIAL GUESS: MODEL POTENTIAL
------------------------------
Loading Hartree-Fock densities                     ... done
Calculating cut-offs                               ... done
Setting up the integral package                    ... done
Initializing the effective Hamiltonian             ... done
Starting the Coulomb interaction                   ... done (   0.0 sec)
Reading the grid                                   ... done
Mapping shells                                     ... done
Starting the XC term evaluation                    ... done (   0.0 sec)
  promolecular density results
     # of electrons  =     35.997043808
     EX              =    -47.358755086
     EC              =     -0.152476287
     EX+EC           =    -47.511231373
Transforming the Hamiltonian                       ... done (   0.0 sec)
Diagonalizing the Hamiltonian                      ... done (   0.0 sec)
Back transforming the eigenvectors                 ... done (   0.0 sec)
Now organizing SCF variables                       ... done
                      ------------------
                      INITIAL GUESS DONE (   0.4 sec)
                      ------------------
--------------
SCF ITERATIONS
--------------
ITER       Energy         Delta-E        Max-DP      RMS-DP      [F,P]     Damp
  0   -705.5406369908   0.000000000000 0.02777668  0.00048000  0.1089664 0.7000
  1   -705.5523744893  -0.011737498488 0.02834340  0.00051596  0.1072278 0.7000
                               ***Turning on DIIS***
  2   -705.5553236295  -0.002949140141 0.07526740  0.00135917  0.0809306 0.0000
  3   -705.5864077684  -0.031084138967 0.01527203  0.00024397  0.0259903 0.0000
  4   -705.5878417305  -0.001433962067 0.00618992  0.00009704  0.0095460 0.0000
                      *** Initiating the SOSCF procedure ***
                           *** Shutting down DIIS ***
                      *** Re-Reading the Fockian *** 
                      *** Removing any level shift *** 
ITER      Energy       Delta-E        Grad      Rot      Max-DP    RMS-DP
  5   -705.58807005  -0.0002283150  0.001040  0.001040  0.002180  0.000034
  6   -705.58810672  -0.0000366763  0.000396  0.000765  0.001713  0.000025
  7   -705.58811108  -0.0000043609  0.000060  0.000154  0.000662  0.000009
                 **** Energy Check signals convergence ****
              ***Rediagonalizing the Fockian in SOSCF/NRSCF***

               *****************************************************
               *                     SUCCESS                       *
               *           SCF CONVERGED AFTER   8 CYCLES          *
               *****************************************************


----------------
TOTAL SCF ENERGY
----------------

Total Energy       :         -705.58811127 Eh          -19200.02862 eV

Components:
Nuclear Repulsion  :           85.45835481 Eh            2325.44006 eV
Electronic Energy  :         -791.04646608 Eh          -21525.46868 eV
One Electron Energy:        -1145.73931320 Eh          -31177.15173 eV
Two Electron Energy:          354.69284712 Eh            9651.68305 eV

Virial components:
Potential Energy   :        -1410.45370144 Eh          -38380.39644 eV
Kinetic Energy     :          704.86559017 Eh           19180.36782 eV
Virial Ratio       :            2.00102505


DFT components:
N(Alpha)           :       17.999994553618 electrons
N(Beta)            :       17.999994553618 electrons
N(Total)           :       35.999989107236 electrons
E(X)               :      -13.829156448226 Eh       
E(C)               :       -0.726986787228 Eh       
E(XC)              :      -14.556143235454 Eh       
DFET-embed. en.    :        0.000000000000 Eh       

---------------
SCF CONVERGENCE
---------------

  Last Energy change         ...   -1.8429e-07  Tolerance :   1.0000e-06
  Last MAX-Density change    ...    5.4192e-05  Tolerance :   1.0000e-05
  Last RMS-Density change    ...    9.4285e-07  Tolerance :   1.0000e-06
  Last Orbital Gradient      ...    1.5295e-05  Tolerance :   5.0000e-05
  Last Orbital Rotation      ...    1.2393e-05  Tolerance :   5.0000e-05

             **** THE GBW FILE WAS UPDATED (050.gbw) ****
             **** DENSITY FILE WAS UPDATED (050.scfp) ****
             **** ENERGY FILE WAS UPDATED (050.en.tmp) ****
             **** THE GBW FILE WAS UPDATED (050.gbw) ****
             **** DENSITY FILE WAS UPDATED (050.scfp) ****
----------------
ORBITAL ENERGIES
----------------

  NO   OCC          E(Eh)            E(eV) 
   0   2.0000    -103.712283     -2822.1547 
   1   2.0000     -57.584248     -1566.9471 
   2   2.0000     -10.228125      -278.3214 
   3   2.0000      -7.801785      -212.2974 
   4   2.0000      -7.798228      -212.2006 
   5   2.0000      -7.797693      -212.1860 
   6   2.0000      -4.603676      -125.2724 
   7   2.0000      -3.007517       -81.8387 
   8   2.0000      -3.002984       -81.7153 
   9   2.0000      -3.002857       -81.7119 
  10   2.0000      -1.070710       -29.1355 
  11   2.0000      -0.617336       -16.7986 
  12   2.0000      -0.540307       -14.7025 
  13   2.0000      -0.531491       -14.4626 
  14   2.0000      -0.476669       -12.9708 
  15   2.0000      -0.456626       -12.4254 
  16   2.0000      -0.373520       -10.1640 
  17   2.0000      -0.369869       -10.0647 
  18   0.0000       0.015209         0.4139 
  19   0.0000       0.034288         0.9330 
  20   0.0000       0.055326         1.5055 
  21   0.0000       0.065739         1.7888 
  22   0.0000       0.067596         1.8394 
  23   0.0000       0.077836         2.1180 
  24   0.0000       0.084840         2.3086 
  25   0.0000       0.091022         2.4768 
  26   0.0000       0.112500         3.0613 
  27   0.0000       0.114736         3.1221 
  28   0.0000       0.118827         3.2335 
  29   0.0000       0.126662         3.4466 
  30   0.0000       0.146853         3.9961 
  31   0.0000       0.162952         4.4341 
  32   0.0000       0.172092         4.6829 
  33   0.0000       0.182752         4.9729 
  34   0.0000       0.186305         5.0696 
  35   0.0000       0.193264         5.2590 
  36   0.0000       0.210249         5.7212 
  37   0.0000       0.218376         5.9423 
  38   0.0000       0.223921         6.0932 
  39   0.0000       0.231340         6.2951 
  40   0.0000       0.232618         6.3299 
  41   0.0000       0.251015         6.8305 
  42   0.0000       0.266829         7.2608 
  43   0.0000       0.280946         7.6449 
  44   0.0000       0.289581         7.8799 
  45   0.0000       0.301199         8.1960 
  46   0.0000       0.307148         8.3579 
  47   0.0000       0.308986         8.4079 
  48   0.0000       0.331271         9.0143 
  49   0.0000       0.338642         9.2149 
  50   0.0000       0.347468         9.4551 
  51   0.0000       0.359951         9.7948 
  52   0.0000       0.370966        10.0945 
  53   0.0000       0.378471        10.2987 
  54   0.0000       0.387972        10.5572 
  55   0.0000       0.401737        10.9318 
  56   0.0000       0.408054        11.1037 
  57   0.0000       0.427385        11.6297 
  58   0.0000       0.457491        12.4490 
  59   0.0000       0.463984        12.6257 
  60   0.0000       0.464948        12.6519 
  61   0.0000       0.472932        12.8691 
  62   0.0000       0.497195        13.5294 
  63   0.0000       0.533126        14.5071 
  64   0.0000       0.548340        14.9211 
  65   0.0000       0.567670        15.4471 
  66   0.0000       0.577717        15.7205 
  67   0.0000       0.625660        17.0251 
  68   0.0000       0.641036        17.4435 
  69   0.0000       0.654212        17.8020 
  70   0.0000       0.668453        18.1895 
  71   0.0000       0.688701        18.7405 
  72   0.0000       0.705278        19.1916 
  73   0.0000       0.719537        19.5796 
  74   0.0000       0.723294        19.6818 
  75   0.0000       0.758333        20.6353 
  76   0.0000       0.789290        21.4777 
  77   0.0000       0.815775        22.1984 
  78   0.0000       0.831012        22.6130 
  79   0.0000       0.850875        23.1535 
  80   0.0000       0.886582        24.1251 
  81   0.0000       0.891040        24.2464 
  82   0.0000       0.900695        24.5091 
  83   0.0000       0.914108        24.8742 
  84   0.0000       0.938630        25.5414 
  85   0.0000       0.954494        25.9731 
  86   0.0000       0.956228        26.0203 
  87   0.0000       0.972375        26.4597 
  88   0.0000       0.987421        26.8691 
  89   0.0000       0.989167        26.9166 
  90   0.0000       1.032692        28.1010 
  91   0.0000       1.058111        28.7927 
  92   0.0000       1.109744        30.1977 
  93   0.0000       1.120259        30.4838 
  94   0.0000       1.144665        31.1479 
  95   0.0000       1.197808        32.5940 
  96   0.0000       1.219733        33.1906 
  97   0.0000       1.222978        33.2789 
  98   0.0000       1.240125        33.7455 
  99   0.0000       1.240989        33.7690 
 100   0.0000       1.262323        34.3496 
 101   0.0000       1.280694        34.8494 
 102   0.0000       1.338331        36.4178 
 103   0.0000       1.352964        36.8160 
 104   0.0000       1.423775        38.7429 
 105   0.0000       1.468259        39.9534 
 106   0.0000       1.504151        40.9300 
 107   0.0000       1.550027        42.1784 
 108   0.0000       1.599303        43.5192 
 109   0.0000       1.669196        45.4211 
 110   0.0000       1.677547        45.6484 
 111   0.0000       2.071670        56.3730 
 112   0.0000       2.081510        56.6408 
 113   0.0000       2.085739        56.7559 
 114   0.0000       2.117547        57.6214 
 115   0.0000       2.139123        58.2085 
 116   0.0000       2.195137        59.7327 
 117   0.0000       2.198052        59.8120 
 118   0.0000       2.263143        61.5833 
 119   0.0000       2.322970        63.2112 
 120   0.0000       2.367904        64.4339 
 121   0.0000       2.375566        64.6424 
 122   0.0000       2.395065        65.1730 
 123   0.0000       2.424101        65.9631 
 124   0.0000       2.510606        68.3171 
 125   0.0000       2.537202        69.0408 
 126   0.0000       2.558832        69.6294 
 127   0.0000       2.587398        70.4067 
 128   0.0000       2.627609        71.5009 
 129   0.0000       2.702005        73.5253 
 130   0.0000       2.802904        76.2709 
 131   0.0000       3.066436        83.4420 
 132   0.0000       3.083173        83.8974 
 133   0.0000       3.101074        84.3845 
 134   0.0000       3.114417        84.7476 
 135   0.0000       3.137613        85.3788 
 136   0.0000       3.149070        85.6905 
 137   0.0000       3.344848        91.0179 
 138   0.0000       3.350808        91.1801 
 139   0.0000       3.402065        92.5749 
 140   0.0000       3.418726        93.0283 
 141   0.0000       3.426727        93.2460 
 142   0.0000       3.434532        93.4584 
 143   0.0000       3.439248        93.5867 
 144   0.0000       3.453015        93.9613 
 145   0.0000       3.473069        94.5070 
 146   0.0000       3.539276        96.3086 
 147   0.0000       3.550425        96.6120 
 148   0.0000       3.559096        96.8479 
 149   0.0000       3.563419        96.9656 
 150   0.0000       3.566675        97.0542 
 151   0.0000       3.615824        98.3916 
 152   0.0000       3.697066       100.6023 
 153   0.0000       3.734521       101.6215 
 154   0.0000       3.790311       103.1396 
 155   0.0000       3.795930       103.2925 
 156   0.0000       3.866858       105.2226 
 157   0.0000       3.873338       105.3989 
 158   0.0000       3.896405       106.0266 
 159   0.0000       3.906640       106.3051 
 160   0.0000       3.921142       106.6997 
 161   0.0000       3.962763       107.8323 
 162   0.0000       3.969622       108.0189 
 163   0.0000       3.973129       108.1143 
 164   0.0000       4.002861       108.9234 
 165   0.0000       4.023513       109.4853 
 166   0.0000       4.067224       110.6748 
 167   0.0000       4.096653       111.4756 
 168   0.0000       4.153367       113.0189 
 169   0.0000       4.169196       113.4496 
 170   0.0000       4.227578       115.0382 
 171   0.0000       4.234175       115.2178 
 172   0.0000       4.257680       115.8574 
 173   0.0000       4.287671       116.6735 
 174   0.0000       4.321480       117.5935 
 175   0.0000       4.357455       118.5724 
 176   0.0000       4.368828       118.8818 
 177   0.0000       4.450151       121.0948 
 178   0.0000       4.523827       123.0996 
 179   0.0000       4.537872       123.4818 
 180   0.0000       4.595127       125.0398 
 181   0.0000       4.773438       129.8918 
 182   0.0000       4.777292       129.9967 
 183   0.0000       4.913184       133.6945 
 184   0.0000       5.564945       151.4299 
 185   0.0000       5.565932       151.4567 
 186   0.0000       5.763927       156.8444 
 187   0.0000       6.970403       189.6743 
 188   0.0000       8.495310       231.1691 
 189   0.0000       8.506461       231.4726 
 190   0.0000       8.527948       232.0573 
 191   0.0000       8.545129       232.5248 
 192   0.0000       8.875549       241.5160 
 193   0.0000       8.907201       242.3773 
 194   0.0000       9.867622       268.5116 
 195   0.0000      10.031560       272.9726 
 196   0.0000      10.043701       273.3030 
 197   0.0000      11.232717       305.6578 
 198   0.0000      11.400249       310.2165 
 199   0.0000      11.593002       315.4616 
 200   0.0000      26.653913       725.2898 

                    ********************************
                    * MULLIKEN POPULATION ANALYSIS *
                    ********************************

-----------------------
MULLIKEN ATOMIC CHARGES
-----------------------
   0 H :   -0.038094
   1 Cl:   -0.216202
   2 H :    0.027897
   3 H :   -0.240665
   4 H :   -0.247613
   5 H :    0.282892
   6 Al:    0.692600
   7 H :   -0.260815
Sum of atomic charges:    0.0000000

--------------------------------
MULLIKEN REDUCED ORBITAL CHARGES
--------------------------------
  0 H s       :     1.013122  s :     1.013122
      pz      :     0.003514  p :     0.024812
      px      :     0.008381
      py      :     0.012917
      dz2     :     0.000009  d :     0.000160
      dxz     :     0.000011
      dyz     :     0.000023
      dx2y2   :     0.000013
      dxy     :     0.000104
  1 Cls       :     5.949163  s :     5.949163
      pz      :     3.324877  p :    11.209228
      px      :     3.974090
      py      :     3.910261
      dz2     :     0.039937  d :     0.054887
      dxz     :     0.001230
      dyz     :     0.005919
      dx2y2   :     0.003579
      dxy     :     0.004222
      f0      :     0.002520  f :     0.002924
      f+1     :     0.000161
      f-1     :     0.000087
      f+2     :     0.000036
      f-2     :     0.000004
      f+3     :     0.000046
      f-3     :     0.000069
  2 H s       :     0.954964  s :     0.954964
      pz      :     0.002425  p :     0.016996
      px      :     0.005846
      py      :     0.008725
      dz2     :     0.000009  d :     0.000142
      dxz     :     0.000015
      dyz     :     0.000023
      dx2y2   :     0.000010
      dxy     :     0.000086
  3 H s       :     1.218754  s :     1.218754
      pz      :     0.009838  p :     0.021487
      px      :     0.009247
      py      :     0.002402
      dz2     :     0.000070  d :     0.000424
      dxz     :     0.000119
      dyz     :     0.000003
      dx2y2   :     0.000204
      dxy     :     0.000028
  4 H s       :     1.225078  s :     1.225078
      pz      :     0.010591  p :     0.022116
      px      :     0.009149
      py      :     0.002376
      dz2     :     0.000050  d :     0.000418
      dxz     :     0.000259
      dyz     :     0.000011
      dx2y2   :     0.000084
      dxy     :     0.000014
  5 H s       :     0.661532  s :     0.661532
      pz      :     0.019465  p :     0.051975
      px      :     0.018783
      py      :     0.013727
      dz2     :     0.001383  d :     0.003601
      dxz     :     0.001149
      dyz     :     0.001054
      dx2y2   :     0.000012
      dxy     :     0.000002
  6 Als       :     4.859704  s :     4.859704
      pz      :     2.558917  p :     7.190338
      px      :     2.576248
      py      :     2.055173
      dz2     :     0.079206  d :     0.230947
      dxz     :     0.082385
      dyz     :     0.000528
      dx2y2   :     0.061179
      dxy     :     0.007648
      f0      :     0.006150  f :     0.026412
      f+1     :     0.004325
      f-1     :     0.002337
      f+2     :     0.004675
      f-2     :     0.000294
      f+3     :     0.004389
      f-3     :     0.004241
  7 H s       :     1.240682  s :     1.240682
      pz      :     0.008596  p :     0.019730
      px      :     0.008741
      py      :     0.002393
      dz2     :     0.000296  d :     0.000403
      dxz     :     0.000091
      dyz     :     0.000010
      dx2y2   :     0.000005
      dxy     :     0.000001


                     *******************************
                     * LOEWDIN POPULATION ANALYSIS *
                     *******************************

----------------------
LOEWDIN ATOMIC CHARGES
----------------------
   0 H :    0.006320
   1 Cl:    0.519758
   2 H :    0.027913
   3 H :   -0.190030
   4 H :   -0.191590
   5 H :   -0.329151
   6 Al:    0.344882
   7 H :   -0.188102

-------------------------------
LOEWDIN REDUCED ORBITAL CHARGES
-------------------------------
  0 H s       :     0.894049  s :     0.894049
      pz      :     0.025139  p :     0.093895
      px      :     0.021485
      py      :     0.047270
      dz2     :     0.000661  d :     0.005736
      dxz     :     0.000570
      dyz     :     0.001110
      dx2y2   :     0.000359
      dxy     :     0.003037
  1 Cls       :     5.451393  s :     5.451393
      pz      :     3.310716  p :    10.857722
      px      :     3.813485
      py      :     3.733521
      dz2     :     0.073009  d :     0.166846
      dxz     :     0.001310
      dyz     :     0.033148
      dx2y2   :     0.031901
      dxy     :     0.027477
      f0      :     0.003675  f :     0.004282
      f+1     :     0.000119
      f-1     :     0.000205
      f+2     :     0.000086
      f-2     :     0.000003
      f+3     :     0.000104
      f-3     :     0.000090
  2 H s       :     0.903006  s :     0.903006
      pz      :     0.011140  p :     0.063311
      px      :     0.017981
      py      :     0.034190
      dz2     :     0.000636  d :     0.005769
      dxz     :     0.000592
      dyz     :     0.001156
      dx2y2   :     0.000359
      dxy     :     0.003027
  3 H s       :     1.044972  s :     1.044972
      pz      :     0.042359  p :     0.143137
      px      :     0.087481
      py      :     0.013296
      dz2     :     0.000284  d :     0.001921
      dxz     :     0.000550
      dyz     :     0.000014
      dx2y2   :     0.000940
      dxy     :     0.000133
  4 H s       :     1.039593  s :     1.039593
      pz      :     0.064821  p :     0.150065
      px      :     0.069676
      py      :     0.015568
      dz2     :     0.000291  d :     0.001932
      dxz     :     0.001066
      dyz     :     0.000060
      dx2y2   :     0.000437
      dxy     :     0.000078
  5 H s       :     0.765347  s :     0.765347
      pz      :     0.257440  p :     0.521095
      px      :     0.130634
      py      :     0.133020
      dz2     :     0.017803  d :     0.042710
      dxz     :     0.012829
      dyz     :     0.011997
      dx2y2   :     0.000054
      dxy     :     0.000028
  6 Als       :     4.613891  s :     4.613891
      pz      :     2.602598  p :     7.339967
      px      :     2.617677
      py      :     2.119692
      dz2     :     0.184594  d :     0.602481
      dxz     :     0.153704
      dyz     :     0.039921
      dx2y2   :     0.177590
      dxy     :     0.046673
      f0      :     0.017320  f :     0.098778
      f+1     :     0.010592
      f-1     :     0.014170
      f+2     :     0.015708
      f-2     :     0.001100
      f+3     :     0.017996
      f-3     :     0.021892
  7 H s       :     1.037275  s :     1.037275
      pz      :     0.090732  p :     0.148929
      px      :     0.041922
      py      :     0.016275
      dz2     :     0.001274  d :     0.001898
      dxz     :     0.000461
      dyz     :     0.000123
      dx2y2   :     0.000033
      dxy     :     0.000007


                      *****************************
                      * MAYER POPULATION ANALYSIS *
                      *****************************

  NA   - Mulliken gross atomic population
  ZA   - Total nuclear charge
  QA   - Mulliken gross atomic charge
  VA   - Mayer's total valence
  BVA  - Mayer's bonded valence
  FA   - Mayer's free valence

  ATOM       NA         ZA         QA         VA         BVA        FA
  0 H      1.0381     1.0000    -0.0381     1.0126     1.0126     0.0000
  1 Cl    17.2162    17.0000    -0.2162     1.1366     1.1366    -0.0000
  2 H      0.9721     1.0000     0.0279     0.9931     0.9931     0.0000
  3 H      1.2407     1.0000    -0.2407     0.9691     0.9691     0.0000
  4 H      1.2476     1.0000    -0.2476     0.9687     0.9687     0.0000
  5 H      0.7171     1.0000     0.2829     0.9373     0.9373    -0.0000
  6 Al    12.3074    13.0000     0.6926     2.8863     2.8863     0.0000
  7 H      1.2608     1.0000    -0.2608     0.9491     0.9491    -0.0000

  Mayer bond orders larger than 0.100000
B(  0-H ,  2-H ) :   1.0014 B(  1-Cl,  5-H ) :   0.9328 B(  1-Cl,  6-Al) :   0.1559 
B(  3-H ,  6-Al) :   0.9247 B(  4-H ,  6-Al) :   0.9189 B(  6-Al,  7-H ) :   0.8974 


-------
TIMINGS
-------

Total SCF time: 0 days 0 hours 0 min 2 sec 

Total time                  ....       2.144 sec
Sum of individual times     ....       1.982 sec  ( 92.4%)

Fock matrix formation       ....       1.521 sec  ( 70.9%)
  XC integration            ....       0.221 sec  ( 14.5% of F)
    Basis function eval.    ....       0.044 sec  ( 20.0% of XC)
    Density eval.           ....       0.033 sec  ( 15.0% of XC)
    XC-Functional eval.     ....       0.010 sec  (  4.6% of XC)
    XC-Potential eval.      ....       0.055 sec  ( 24.7% of XC)
Diagonalization             ....       0.035 sec  (  1.6%)
Density matrix formation    ....       0.007 sec  (  0.3%)
Population analysis         ....       0.007 sec  (  0.3%)
Initial guess               ....       0.149 sec  (  6.9%)
Orbital Transformation      ....       0.000 sec  (  0.0%)
Orbital Orthonormalization  ....       0.000 sec  (  0.0%)
DIIS solution               ....       0.012 sec  (  0.5%)
SOSCF solution              ....       0.010 sec  (  0.5%)
Grid generation             ....       0.242 sec  ( 11.3%)


           ************************************************************
           *        Program running with 24 parallel MPI-processes    *
           *              working on a common directory               *
           ************************************************************

------------------------------------------------------------------------------
                                ORCA  MP2 
------------------------------------------------------------------------------

Freezing NCore=20 chemical core electrons

-------------
RI-MP2 ENERGY
-------------
Dimension of the basis                    ...  201
Memory devoted to MP2                     ... 5000 MB   
Data format for buffers                   ... DOUBLE
Compression type for matrix containers    ... UNCOMPRESSED
Scaling for aa/bb pairs                   ...   4.000e-01
Scaling for ab pairs                      ...   4.700e-01
Overall scaling of the MP2 energy         ...   1.000e+00
Calculating two index integrals           ... done (    0.002 sec)
Cholesky decomposition of V**-1           ... done (    0.023 sec)

-----------------
RI-TRANSFORMATION (AUX index driven)
-----------------

Dimension of the orbital-basis         ... 201
Dimension of the aux-basis             ... 512
Transformation of internal/external MOs...   10-  17 to   18- 200
Number Format for Storage              ... Double (8 Byte)
Integral mode                          ... Direct

First Phase: integral generation and transformation of MO indices
  Aux angular momentum 0               ... done (    0.003 sec)
  Aux angular momentum 1               ... done (    0.003 sec)
  Aux angular momentum 2               ... done (    0.005 sec)
  Aux angular momentum 3               ... done (    0.004 sec)
  Aux angular momentum 4               ... done (    0.005 sec)
Closing buffer VIA ( 0.01 GB; CompressionRatio= 1.00)
  Phase 1 completed in     0.121 sec
Second Phase: sorting and transformation of aux index

IA-Transformation
Memory available                       ... 4995 MB 
Max. # MO pairs treated in a batch     ... 1    
# of internal orbitals                 ... 8
# batches for internal orbitals        ... 1
Closing buffer IAV ( 0.00 GB; CompressionRatio= 1.00)
(ia|v) transformation done in     0.007 sec

  Phase 2 completed in     0.014 sec
RI-Integral transformation completed in     0.137 sec
Opening buffers                              ... done

Starting loop over batches of integrals:

Operator 0  - window                       ... ( 10- 17)x( 18-200)
Operator 0  - Memory available             ...  5000 MB
Operator 0  - Memory needed per MO         ...   0.7 MB
Operator 0  - Number of orbitals per batch ... 1
Operator 0  - Number of batches            ... 1

OPERATOR  0   PASS   0:  MOs    10 ...   10 +   11 ...   11 +   12 ...   12 +   13 ...   13
                            +   14 ...   14 +   15 ...   15 +   16 ...   16 +   17 ...   17
  Reading integrals       ... ok
Time spent in pair loops =     0.003 sec
Deleting buffer (Ka|jb)[aa] ...done

-----------------------------------------------
 RI-MP2 CORRELATION ENERGY:     -0.174508689 Eh
-----------------------------------------------


-------
TIMINGS
-------

Total time                :    0.191 sec
Integral trafo            :    0.154 sec ( 80.2%)
I/O of integrals          :    0.001 sec (  0.3%)
K(i,j) Operators          :    0.001 sec (  0.3%)
T(i,j) pair energies      :    0.000 sec (  0.1%)
V-calculation             :    0.002 sec (  1.3%)
V**(-1/2)                 :    0.023 sec ( 12.0%)
Gamma(ia|P)               :    0.000 sec (  0.0%)
Gamma-Trafo               :    0.000 sec (  0.0%)
D(virtual)                :    0.000 sec (  0.0%)
D(internal)               :    0.000 sec (  0.0%)
W(virtual)                :    0.000 sec (  0.0%)
W(internal)               :    0.000 sec (  0.0%)
L(virtual)                :    0.000 sec (  0.0%)
L(internal)               :    0.000 sec (  0.0%)
G(D)                      :    0.000 sec (  0.0%)
G(Z)                      :    0.000 sec (  0.0%)
Z-Vector Solution         :    0.000 sec (  0.0%)
Z-Vector Solution         :    0.000 sec (  0.0%)
3-Index Derivative 
+ Separable RIJ part      :    0.000 sec (  0.0%)
2-Index Derivative 
+ Separable RIJ part      :    0.000 sec (  0.0%)
Separable Gradient (X)    :    0.000 sec (  0.0%)


---------------------------------------
MP2 TOTAL ENERGY:     -705.762619956 Eh
---------------------------------------


-------------------------------------------------------------------------------
                          DFT DISPERSION CORRECTION                            
                                                                               
                              DFTD3 V3.1  Rev 1                                
                          USING Becke-Johnson damping                          
-------------------------------------------------------------------------------
The DSD-BLYP/2013 functional is recognized
Active option DFTDOPT                   ...         4   

molecular C6(AA) [au] = 1043.465562 


            DFT-D V3
 parameters
 s6 scaling factor         :     0.5700 
 a1 scaling factor         :     0.0000 
 s8 scaling factor         :     0.0000 
 a2 scaling factor         :     5.4000 
 ad hoc parameters k1-k3   :    16.0000     1.3333    -4.0000 

 Edisp/kcal,au: -2.893913154873  -0.004611743672 
 E6   /kcal   :  -2.893913155 
 E8   /kcal   :  -0.000000000 
 % E8         :   0.000000000 

-------------------------   ----------------
Dispersion correction           -0.004611744
-------------------------   ----------------


-------------------------   --------------------
FINAL SINGLE POINT ENERGY      -705.767231700101
-------------------------   --------------------


                            ***************************************
                            *     ORCA property calculations      *
                            ***************************************


  WARNING: The energy has been calculated at the MP2 level but the densities
           used in the property calculations are still SCF densities
           MP2 response densities have not been calculated 
           use %mp2 Density relaxed end
           or  %mp2 Density unrelaxed end

                                    ---------------------
                                    Active property flags
                                    ---------------------
   (+) Dipole Moment


------------------------------------------------------------------------------
                       ORCA ELECTRIC PROPERTIES CALCULATION
------------------------------------------------------------------------------

Dipole Moment Calculation                       ... on
Quadrupole Moment Calculation                   ... off
Polarizability Calculation                      ... off
GBWName                                         ... 050.gbw
Electron density file                           ... 050.scfp
The origin for moment calculation is the CENTER OF MASS  = (-0.011224, -0.697008  1.096553)

-------------
DIPOLE MOMENT
-------------
                                X             Y             Z
Electronic contribution:     -0.04029      -3.62509       5.11336
Nuclear contribution   :      0.04784       2.78212      -4.67262
                        -----------------------------------------
Total Dipole Moment    :      0.00755      -0.84297       0.44074
                        -----------------------------------------
Magnitude (a.u.)       :      0.95126
Magnitude (Debye)      :      2.41791



--------------------
Rotational spectrum 
--------------------
 
Rotational constants in cm-1:     0.545363     0.134491     0.113645 
Rotational constants in MHz : 16349.582447  4031.950699  3406.980673 

 Dipole components along the rotational axes: 
x,y,z [a.u.] :    -0.842965     0.440740    -0.007551 
x,y,z [Debye]:    -2.142646     1.120272    -0.019192 

 

Timings for individual modules:

Sum of individual times         ...        3.962 sec (=   0.066 min)
GTO integral calculation        ...        0.668 sec (=   0.011 min)  16.9 %
SCF iterations                  ...        2.566 sec (=   0.043 min)  64.8 %
MP2 module                      ...        0.728 sec (=   0.012 min)  18.4 %
                             ****ORCA TERMINATED NORMALLY****
TOTAL RUN TIME: 0 days 0 hours 0 minutes 4 seconds 615 msec
