
                                 *****************
                                 * O   R   C   A *
                                 *****************

           --- An Ab Initio, DFT and Semiempirical electronic structure package ---

                  #######################################################
                  #                        -***-                        #
                  #          Department of theory and spectroscopy      #
                  #               Directorship: Frank Neese             #
                  #        Max Planck Institute fuer Kohlenforschung    #
                  #                Kaiser Wilhelm Platz 1               #
                  #                 D-45470 Muelheim/Ruhr               #
                  #                      Germany                        #
                  #                                                     #
                  #                  All rights reserved                #
                  #                        -***-                        #
                  #######################################################


                         Program Version 4.2.0 -  RELEASE  -


 With contributions from (in alphabetic order):
   Daniel Aravena         : Magnetic Suceptibility
   Michael Atanasov       : Ab Initio Ligand Field Theory (pilot matlab implementation)
   Alexander A. Auer      : GIAO ZORA, VPT2
   Ute Becker             : Parallelization
   Giovanni Bistoni       : ED, misc. LED, open-shell LED, HFLED
   Martin Brehm           : Molecular dynamics
   Dmytro Bykov           : SCF Hessian
   Vijay G. Chilkuri      : MRCI spin determinant printing, contributions to CSF-ICE
   Dipayan Datta          : RHF DLPNO-CCSD density
   Achintya Kumar Dutta   : EOM-CC, STEOM-CC
   Dmitry Ganyushin       : Spin-Orbit,Spin-Spin,Magnetic field MRCI
   Miquel Garcia          : C-PCM Hessian, Gaussian charge scheme
   Yang Guo               : DLPNO-NEVPT2, CIM, IAO-localization
   Andreas Hansen         : Spin unrestricted coupled pair/coupled cluster methods
   Benjamin Helmich-Paris : CASSCF linear response (MC-RPA)
   Lee Huntington         : MR-EOM, pCC
   Robert Izsak           : Overlap fitted RIJCOSX, COSX-SCS-MP3, EOM
   Christian Kollmar      : KDIIS, OOCD, Brueckner-CCSD(T), CCSD density
   Simone Kossmann        : Meta GGA functionals, TD-DFT gradient, OOMP2, MP2 Hessian
   Martin Krupicka        : AUTO-CI
   Lucas Lang             : DCDCAS
   Dagmar Lenk            : GEPOL surface, SMD
   Dimitrios Liakos       : Extrapolation schemes; Compound Job, initial MDCI parallelization
   Dimitrios Manganas     : Further ROCIS development; embedding schemes
   Dimitrios Pantazis     : SARC Basis sets
   Taras Petrenko         : DFT Hessian,TD-DFT gradient, ASA, ECA, R-Raman, ABS, FL, XAS/XES, NRVS
   Peter Pinski           : DLPNO-MP2, DLPNO-MP2 Gradient
   Christoph Reimann      : Effective Core Potentials
   Marius Retegan         : Local ZFS, SOC
   Christoph Riplinger    : Optimizer, TS searches, QM/MM, DLPNO-CCSD(T), (RO)-DLPNO pert. Triples
   Tobias Risthaus        : Range-separated hybrids, TD-DFT gradient, RPA, STAB
   Michael Roemelt        : Original ROCIS implementation
   Masaaki Saitow         : Open-shell DLPNO-CCSD energy and density
   Barbara Sandhoefer     : DKH picture change effects
   Avijit Sen             : IP-ROCIS
   Kantharuban Sivalingam : CASSCF convergence, NEVPT2, FIC-MRCI
   Bernardo de Souza      : ESD, SOC TD-DFT
   Georgi Stoychev        : AutoAux, RI-MP2 NMR
   Willem Van den Heuvel  : Paramagnetic NMR
   Boris Wezisla          : Elementary symmetry handling
   Frank Wennmohs         : Technical directorship


 We gratefully acknowledge several colleagues who have allowed us to
 interface, adapt or use parts of their codes:
   Stefan Grimme, W. Hujo, H. Kruse,             : VdW corrections, initial TS optimization,
                  C. Bannwarth                     DFT functionals, gCP, sTDA/sTD-DF
   Ed Valeev, F. Pavosevic, A. Kumar             : LibInt (2-el integral package), F12 methods
   Garnet Chan, S. Sharma, J. Yang, R. Olivares  : DMRG
   Ulf Ekstrom                                   : XCFun DFT Library
   Mihaly Kallay                                 : mrcc  (arbitrary order and MRCC methods)
   Andreas Klamt, Michael Diedenhofen            : otool_cosmo (COSMO solvation model)
   Jiri Pittner, Ondrej Demel                    : Mk-CCSD
   Frank Weinhold                                : gennbo (NPA and NBO analysis)
   Christopher J. Cramer and Donald G. Truhlar   : smd solvation model
   Lars Goerigk                                  : TD-DFT with DH, B97 family of functionals
   V. Asgeirsson, H. Jonsson                     : NEB implementation
   FAccTs GmbH                                   : IRC, NEB, NEB-TS, Multilevel, MM, QM/MM, CI optimization
   S Lehtola, MJT Oliveira, MAL Marques          : LibXC Library


 Your calculation uses the libint2 library for the computation of 2-el integrals
 For citations please refer to: http://libint.valeyev.net

 Your ORCA version has been built with support for libXC version: 4.2.3
 For citations please refer to: https://tddft.org/programs/libxc/

 This ORCA versions uses:
   CBLAS   interface :  Fast vector & matrix operations
   LAPACKE interface :  Fast linear algebra routines
   SCALAPACK package :  Parallel linear algebra routines


Your calculation utilizes the atom-pairwise dispersion correction
with the Becke-Johnson damping scheme (D3BJ)
Cite in your paper:
S.Grimme, S.Ehrlich, L.Goerigk, J Comput Chem, (2011), 32, 1456–1465 
S.Grimme, J.Antony, S.Ehrlich and H.Krieg, J.Chem.Phys., 132, (2010), 154104 
   

----- Orbital basis set information -----
Your calculation utilizes the basis: def2-TZVPPD
   F. Weigend and R. Ahlrichs, Phys. Chem. Chem. Phys. 7, 3297 (2005).
   D. Rappoport and F. Furche, J. Chem. Phys. 133 134105 (2010).

----- AuxC basis set information -----
Your calculation utilizes the auxiliary basis: def2-TZVPPD/C
   A. Hellweg, C. Hattig, S. Hofener and W. Klopper, Theor. Chem. Acc. 117, 587 (2007).

----- AuxJK basis set information -----
Your calculation utilizes the auxiliary basis: def2/JK
   H-Ba, Hf-Rn: F. Weigend, J. Comput. Chem. 29, 167 (2008).

================================================================================
                                        WARNINGS
                       Please study these warnings very carefully!
================================================================================


WARNING: No MP2 level density has been requested!
         To caclulate MP2 level properties use
         %mp2 Density relaxed end
         or
         %mp2 Density unrelaxed end
         Otherwise for double-hybrid DFT only the energy is correct!

WARNING: There are different parametrizations of Gershom Martin's DSD-DFs
         for use with and without D3(BJ)!
         You are using the D3(BJ) parametrized version,
         consistent with the 2013 article (S. Kozuch and J. M. L. Martin, JCC 2013, 34, 2327)

WARNING: The frozen-core approximation is turned on by default for 
         the MP2 part of double-hybrid DFT.

INFO   : the flag for use of LIBINT has been found!

================================================================================
                                       INPUT FILE
================================================================================
NAME = 070.in
|  1> #
|  2> # 070 ri-DSD-BLYP/2013-D3BJ/Def2-TZVPPD
|  3> #
|  4> ! rijk ri-dsd-blyp/2013 d3bj def2-tzvppd def2/jk def2-tzvppd/c grid4 nofinalgrid
|  5> 
|  6> *xyz 0 1
|  7> H          0.08530       -0.02655        1.60712
|  8> H          0.90656       -0.78582       -1.39861
|  9> Be        -0.05035        0.92778       -0.02639
| 10> H          0.07901        0.71807        1.80526
| 11> F         -0.04624       -1.68577        0.17900
| 12> C         -0.00461       -0.62157       -0.79461
| 13> H         -0.11623        2.26790        0.10895
| 14> H         -0.85344       -0.79405       -1.48072
| 15> *
| 16> 
| 17> %maxcore 5000
| 18> 
| 19> %pal
| 20> nprocs = 24
| 21> end
| 22> 
| 23> 
| 24>                          ****END OF INPUT****
================================================================================

                       ****************************
                       * Single Point Calculation *
                       ****************************

---------------------------------
CARTESIAN COORDINATES (ANGSTROEM)
---------------------------------
  H      0.085300   -0.026550    1.607120
  H      0.906560   -0.785820   -1.398610
  Be    -0.050350    0.927780   -0.026390
  H      0.079010    0.718070    1.805260
  F     -0.046240   -1.685770    0.179000
  C     -0.004610   -0.621570   -0.794610
  H     -0.116230    2.267900    0.108950
  H     -0.853440   -0.794050   -1.480720

----------------------------
CARTESIAN COORDINATES (A.U.)
----------------------------
  NO LB      ZA    FRAG     MASS         X           Y           Z
   0 H     1.0000    0     1.008    0.161194   -0.050172    3.037017
   1 H     1.0000    0     1.008    1.713150   -1.484985   -2.642990
   2 Be    4.0000    0     9.012   -0.095148    1.753250   -0.049870
   3 H     1.0000    0     1.008    0.149307    1.356956    3.411447
   4 F     9.0000    0    18.998   -0.087381   -3.185644    0.338261
   5 C     6.0000    0    12.011   -0.008712   -1.174597   -1.501595
   6 H     1.0000    0     1.008   -0.219643    4.285710    0.205886
   7 H     1.0000    0     1.008   -1.612768   -1.500537   -2.798155

--------------------------------
INTERNAL COORDINATES (ANGSTROEM)
--------------------------------
 H      0   0   0     0.000000000000     0.00000000     0.00000000
 H      1   0   0     3.207081500898     0.00000000     0.00000000
 Be     1   2   0     1.896708093382    47.95385863     0.00000000
 H      1   2   3     0.770556920740   118.15536226   332.61515603
 F      2   1   3     2.050997599852    42.60999464   224.74103801
 C      2   1   3     1.105452319822    40.68306355   290.68814003
 H      3   1   2     1.348546886245   114.64955815   203.02665553
 H      6   2   1     1.104992602419   105.70707496   180.80386071

---------------------------
INTERNAL COORDINATES (A.U.)
---------------------------
 H      0   0   0     0.000000000000     0.00000000     0.00000000
 H      1   0   0     6.060505725862     0.00000000     0.00000000
 Be     1   2   0     3.584258852484    47.95385863     0.00000000
 H      1   2   3     1.456141550796   118.15536226   332.61515603
 F      2   1   3     3.875823765051    42.60999464   224.74103801
 C      2   1   3     2.089002138572    40.68306355   290.68814003
 H      3   1   2     2.548384293755   114.64955815   203.02665553
 H      6   2   1     2.088133398580   105.70707496   180.80386071

---------------------
BASIS SET INFORMATION
---------------------
There are 4 groups of distinct atoms

 Group   1 Type H   : 5s3p1d contracted to 3s3p1d pattern {311/111/1}
 Group   2 Type Be  : 11s5p1d contracted to 5s4p1d pattern {62111/1211/1}
 Group   3 Type F   : 12s7p3d1f contracted to 6s4p3d1f pattern {621111/4111/111/1}
 Group   4 Type C   : 12s6p3d1f contracted to 6s3p3d1f pattern {621111/411/111/1}

Atom   0H    basis set group =>   1
Atom   1H    basis set group =>   1
Atom   2Be   basis set group =>   2
Atom   3H    basis set group =>   1
Atom   4F    basis set group =>   3
Atom   5C    basis set group =>   4
Atom   6H    basis set group =>   1
Atom   7H    basis set group =>   1
---------------------------------
AUXILIARY/C BASIS SET INFORMATION
---------------------------------
There are 4 groups of distinct atoms

 Group   1 Type H   : 5s4p3d1f contracted to 5s4p3d1f pattern {11111/1111/111/1}
 Group   2 Type Be  : 10s7p4d1f contracted to 10s7p4d1f pattern {1111111111/1111111/1111/1}
 Group   3 Type F   : 9s7p6d4f1g contracted to 9s7p5d4f1g pattern {111111111/1111111/21111/1111/1}
 Group   4 Type C   : 9s7p6d4f1g contracted to 9s7p5d4f1g pattern {111111111/1111111/21111/1111/1}

Atom   0H    basis set group =>   1
Atom   1H    basis set group =>   1
Atom   2Be   basis set group =>   2
Atom   3H    basis set group =>   1
Atom   4F    basis set group =>   3
Atom   5C    basis set group =>   4
Atom   6H    basis set group =>   1
Atom   7H    basis set group =>   1
----------------------------------
AUXILIARY/JK BASIS SET INFORMATION
----------------------------------
There are 4 groups of distinct atoms

 Group   1 Type H   : 4s2p2d contracted to 2s2p2d pattern {31/11/11}
 Group   2 Type Be  : 10s7p4d2f contracted to 7s5p3d2f pattern {4111111/31111/211/11}
 Group   3 Type F   : 14s10p6d2f1g contracted to 10s8p4d2f1g pattern {5111111111/31111111/3111/11/1}
 Group   4 Type C   : 14s10p6d2f1g contracted to 10s8p5d1f1g pattern {5111111111/31111111/21111/2/1}

Atom   0H    basis set group =>   1
Atom   1H    basis set group =>   1
Atom   2Be   basis set group =>   2
Atom   3H    basis set group =>   1
Atom   4F    basis set group =>   3
Atom   5C    basis set group =>   4
Atom   6H    basis set group =>   1
Atom   7H    basis set group =>   1


           ************************************************************
           *        Program running with 24 parallel MPI-processes    *
           *              working on a common directory               *
           ************************************************************
------------------------------------------------------------------------------
                           ORCA GTO INTEGRAL CALCULATION
                           -- RI-GTO INTEGRALS CHOSEN --
------------------------------------------------------------------------------

                         BASIS SET STATISTICS AND STARTUP INFO

Gaussian basis set:
 # of primitive gaussian shells          ...  107
 # of primitive gaussian functions       ...  233
 # of contracted shells                  ...   72
 # of contracted basis functions         ...  184
 Highest angular momentum                ...    3
 Maximum contraction depth               ...    6
Auxiliary gaussian basis set:
 # of primitive gaussian shells          ...  129
 # of primitive gaussian functions       ...  359
 # of contracted shells                  ...   97
 # of contracted aux-basis functions     ...  293
 Highest angular momentum                ...    4
 Maximum contraction depth               ...    5
Ratio of auxiliary to basis functions    ...  1.59
Integral package used                  ... LIBINT
 One Electron integrals                  ... done
 Ordering auxiliary basis shells         ... done
 Integral threshhold             Thresh  ...  1.000e-10
 Primitive cut-off               TCut    ...  1.000e-11
 Pre-screening matrix                    ... done
 Shell pair data                         ... 
 Ordering of the shell pairs             ... done (   0.000 sec) 2577 of 2628 pairs
 Determination of significant pairs      ... done (   0.000 sec)
 Creation of shell pair data             ... done (   0.000 sec)
 Storage of shell pair data              ... done (   0.014 sec)
 Shell pair data done in (   0.014 sec)
 Computing two index integrals           ... done
 Cholesky decomposition of the V-matrix  ... done


Timings:
 Total evaluation time                   ...   0.194 sec (  0.003 min)
 One electron matrix time                ...   0.018 sec (  0.000 min) =  9.0%
 Schwartz matrix evaluation time         ...   0.123 sec (  0.002 min) = 63.2%
 Two index repulsion integral time       ...   0.002 sec (  0.000 min) =  1.1%
 Cholesky decomposition of V             ...   0.015 sec (  0.000 min) =  8.0%
 Three index repulsion integral time     ...   0.000 sec (  0.000 min) =  0.0%



           ************************************************************
           *        Program running with 24 parallel MPI-processes    *
           *              working on a common directory               *
           ************************************************************
-------------------------------------------------------------------------------
                                 ORCA SCF
-------------------------------------------------------------------------------

------------
SCF SETTINGS
------------
Hamiltonian:
 Density Functional     Method          .... DFT(GTOs)
 Exchange Functional    Exchange        .... B88
   X-Alpha parameter    XAlpha          ....  0.666667
   Becke's b parameter  XBeta           ....  0.004200
 Correlation Functional Correlation     .... LYP
 LDA part of GGA corr.  LDAOpt          .... VWN-5
 Gradients option       PostSCFGGA      .... off
 Hybrid DFT is turned on
   Fraction HF Exchange ScalHFX         ....  0.710000
   Scaling of DF-GGA-X  ScalDFX         ....  0.290000
   Scaling of DF-GGA-C  ScalDFC         ....  0.540000
   Scaling of DF-LDA-C  ScalLDAC        ....  0.540000
   Perturbative correction              ....  1.000000
   Density functional embedding theory  .... OFF
 RI-approximation to the Coulomb term is turned on
   Number of auxiliary basis functions  .... 293
   RI-JK (J+K treated both via RI)      .... on


General Settings:
 Integral files         IntName         .... 070
 Hartree-Fock type      HFTyp           .... RHF
 Total Charge           Charge          ....    0
 Multiplicity           Mult            ....    1
 Number of Electrons    NEL             ....   24
 Basis Dimension        Dim             ....  184
 Nuclear Repulsion      ENuc            ....     61.1525331119 Eh

Convergence Acceleration:
 DIIS                   CNVDIIS         .... on
   Start iteration      DIISMaxIt       ....    12
   Startup error        DIISStart       ....  0.200000
   # of expansion vecs  DIISMaxEq       ....     5
   Bias factor          DIISBfac        ....   1.050
   Max. coefficient     DIISMaxC        ....  10.000
 Newton-Raphson         CNVNR           .... off
 SOSCF                  CNVSOSCF        .... on
   Start iteration      SOSCFMaxIt      ....   150
   Startup grad/error   SOSCFStart      ....  0.003300
 Level Shifting         CNVShift        .... on
   Level shift para.    LevelShift      ....    0.2500
   Turn off err/grad.   ShiftErr        ....    0.0010
 Zerner damping         CNVZerner       .... off
 Static damping         CNVDamp         .... on
   Fraction old density DampFac         ....    0.7000
   Max. Damping (<1)    DampMax         ....    0.9800
   Min. Damping (>=0)   DampMin         ....    0.0000
   Turn off err/grad.   DampErr         ....    0.1000
 Fernandez-Rico         CNVRico         .... off

SCF Procedure:
 Maximum # iterations   MaxIter         ....   125
 SCF integral mode      SCFMode         .... Direct
   Integral package                     .... LIBINT
 Reset frequency        DirectResetFreq ....    20
 Integral Threshold     Thresh          ....  1.000e-10 Eh
 Primitive CutOff       TCut            ....  1.000e-11 Eh

Convergence Tolerance:
 Convergence Check Mode ConvCheckMode   .... Total+1el-Energy
 Convergence forced     ConvForced      .... 0
 Energy Change          TolE            ....  1.000e-06 Eh
 1-El. energy change                    ....  1.000e-03 Eh
 Orbital Gradient       TolG            ....  5.000e-05
 Orbital Rotation angle TolX            ....  5.000e-05
 DIIS Error             TolErr          ....  1.000e-06


Diagonalization of the overlap matrix:
Smallest eigenvalue                        ... 3.700e-05
Time for diagonalization                   ...    0.008 sec
Threshold for overlap eigenvalues          ... 1.000e-08
Number of eigenvalues below threshold      ... 0
Time for construction of square roots      ...    0.004 sec
Total time needed                          ...    0.012 sec

-------------------
DFT GRID GENERATION
-------------------

General Integration Accuracy     IntAcc      ...  4.670
Radial Grid Type                 RadialGrid  ... Gauss-Chebyshev
Angular Grid (max. acc.)         AngularGrid ... Lebedev-302
Angular grid pruning method      GridPruning ... 3 (G Style)
Weight generation scheme         WeightScheme... Becke
Basis function cutoff            BFCut       ...    1.0000e-10
Integration weight cutoff        WCut        ...    1.0000e-14
Grids for H and He will be reduced by one unit

# of grid points (after initial pruning)     ...  35414 (   0.0 sec)
# of grid points (after weights+screening)   ...  33837 (   0.0 sec)
nearest neighbour list constructed           ...    0.0 sec
Grid point re-assignment to atoms done       ...    0.0 sec
Grid point division into batches done        ...    0.2 sec
Reduced shell lists constructed in    0.2 sec

Total number of grid points                  ...    33837
Total number of batches                      ...      532
Average number of points per batch           ...       63
Average number of grid points per atom       ...     4230
Average number of shells per batch           ...    42.46 (58.97%)
Average number of basis functions per batch  ...   106.38 (57.81%)
Average number of large shells per batch     ...    34.42 (81.06%)
Average number of large basis fcns per batch ...    84.58 (79.51%)
Average number of aux-shells per batch       ...    42.46 (43.77%)
Average number of aux functions per batch    ...   106.38 (36.31%)
Maximum spatial batch extension              ...  18.83, 12.62, 17.46 au
Average spatial batch extension              ...   0.28,  0.21,  0.26 au

Time for grid setup =    0.200 sec

------------------------------
INITIAL GUESS: MODEL POTENTIAL
------------------------------
Loading Hartree-Fock densities                     ... done
Calculating cut-offs                               ... done
Setting up the integral package                    ... done
Initializing the effective Hamiltonian             ... done
Starting the Coulomb interaction                   ... done (   0.0 sec)
Reading the grid                                   ... done
Mapping shells                                     ... done
Starting the XC term evaluation                    ... done (   0.0 sec)
  promolecular density results
     # of electrons  =     23.997510267
     EX              =    -19.324767475
     EC              =     -0.069134318
     EX+EC           =    -19.393901793
Transforming the Hamiltonian                       ... done (   0.0 sec)
Diagonalizing the Hamiltonian                      ... done (   0.0 sec)
Back transforming the eigenvectors                 ... done (   0.0 sec)
Now organizing SCF variables                       ... done
                      ------------------
                      INITIAL GUESS DONE (   0.3 sec)
                      ------------------
--------------
SCF ITERATIONS
--------------
ITER       Energy         Delta-E        Max-DP      RMS-DP      [F,P]     Damp
  0   -155.1969895101   0.000000000000 0.02984917  0.00082551  0.1558812 0.7000
  1   -155.1489258217   0.048063688411 0.02611587  0.00081785  0.1392258 0.7000
                               ***Turning on DIIS***
  2   -155.1649754677  -0.016049646042 0.06113054  0.00198528  0.0917312 0.0000
  3   -155.2510125628  -0.086037095018 0.02692522  0.00053543  0.0877418 0.0000
  4   -155.2640837415  -0.013071178739 0.00861583  0.00022955  0.0270374 0.0000
  5   -155.2654666669  -0.001382925409 0.00403068  0.00009852  0.0100178 0.0000
  6   -155.2657127502  -0.000246083328 0.00265492  0.00004222  0.0035713 0.0000
                      *** Initiating the SOSCF procedure ***
                           *** Shutting down DIIS ***
                      *** Re-Reading the Fockian *** 
                      *** Removing any level shift *** 
ITER      Energy       Delta-E        Grad      Rot      Max-DP    RMS-DP
  7   -155.26574443  -0.0000316755  0.000292  0.000292  0.001595  0.000022
  8   -155.26574884  -0.0000044191  0.000096  0.000188  0.001158  0.000017
                 **** Energy Check signals convergence ****
              ***Rediagonalizing the Fockian in SOSCF/NRSCF***

               *****************************************************
               *                     SUCCESS                       *
               *           SCF CONVERGED AFTER   9 CYCLES          *
               *****************************************************


----------------
TOTAL SCF ENERGY
----------------

Total Energy       :         -155.26574930 Eh           -4224.99583 eV

Components:
Nuclear Repulsion  :           61.15253311 Eh            1664.04502 eV
Electronic Energy  :         -216.41828241 Eh           -5889.04086 eV
One Electron Energy:         -334.64579468 Eh           -9106.17502 eV
Two Electron Energy:          118.22751227 Eh            3217.13416 eV

Virial components:
Potential Energy   :         -310.05867906 Eh           -8437.12559 eV
Kinetic Energy     :          154.79292976 Eh            4212.12976 eV
Virial Ratio       :            2.00305453


DFT components:
N(Alpha)           :       11.999977167177 electrons
N(Beta)            :       11.999977167177 electrons
N(Total)           :       23.999954334354 electrons
E(X)               :       -5.734504549320 Eh       
E(C)               :       -0.415795616362 Eh       
E(XC)              :       -6.150300165682 Eh       
DFET-embed. en.    :        0.000000000000 Eh       

---------------
SCF CONVERGENCE
---------------

  Last Energy change         ...   -4.5316e-07  Tolerance :   1.0000e-06
  Last MAX-Density change    ...    3.7735e-04  Tolerance :   1.0000e-05
  Last RMS-Density change    ...    6.1991e-06  Tolerance :   1.0000e-06
  Last Orbital Gradient      ...    5.3799e-05  Tolerance :   5.0000e-05
  Last Orbital Rotation      ...    5.8886e-05  Tolerance :   5.0000e-05

             **** THE GBW FILE WAS UPDATED (070.gbw) ****
             **** DENSITY FILE WAS UPDATED (070.scfp) ****
             **** ENERGY FILE WAS UPDATED (070.en.tmp) ****
             **** THE GBW FILE WAS UPDATED (070.gbw) ****
             **** DENSITY FILE WAS UPDATED (070.scfp) ****
----------------
ORBITAL ENERGIES
----------------

  NO   OCC          E(Eh)            E(eV) 
   0   2.0000     -25.686486      -698.9648 
   1   2.0000     -10.893573      -296.4292 
   2   2.0000      -4.444365      -120.9373 
   3   2.0000      -1.416523       -38.5456 
   4   2.0000      -0.825880       -22.4733 
   5   2.0000      -0.638104       -17.3637 
   6   2.0000      -0.592604       -16.1256 
   7   2.0000      -0.581874       -15.8336 
   8   2.0000      -0.553784       -15.0692 
   9   2.0000      -0.454833       -12.3766 
  10   2.0000      -0.412656       -11.2289 
  11   2.0000      -0.383276       -10.4295 
  12   0.0000       0.019530         0.5314 
  13   0.0000       0.036644         0.9971 
  14   0.0000       0.044256         1.2043 
  15   0.0000       0.051503         1.4015 
  16   0.0000       0.081840         2.2270 
  17   0.0000       0.083788         2.2800 
  18   0.0000       0.099214         2.6998 
  19   0.0000       0.117846         3.2068 
  20   0.0000       0.138018         3.7557 
  21   0.0000       0.142902         3.8886 
  22   0.0000       0.147116         4.0032 
  23   0.0000       0.170740         4.6461 
  24   0.0000       0.181050         4.9266 
  25   0.0000       0.196961         5.3596 
  26   0.0000       0.209291         5.6951 
  27   0.0000       0.221701         6.0328 
  28   0.0000       0.230651         6.2763 
  29   0.0000       0.236336         6.4310 
  30   0.0000       0.255327         6.9478 
  31   0.0000       0.272312         7.4100 
  32   0.0000       0.282833         7.6963 
  33   0.0000       0.285134         7.7589 
  34   0.0000       0.292697         7.9647 
  35   0.0000       0.310210         8.4412 
  36   0.0000       0.312318         8.4986 
  37   0.0000       0.346335         9.4243 
  38   0.0000       0.358719         9.7612 
  39   0.0000       0.363863         9.9012 
  40   0.0000       0.366338         9.9686 
  41   0.0000       0.382014        10.3951 
  42   0.0000       0.393341        10.7033 
  43   0.0000       0.402475        10.9519 
  44   0.0000       0.409821        11.1518 
  45   0.0000       0.416272        11.3273 
  46   0.0000       0.429527        11.6880 
  47   0.0000       0.461931        12.5698 
  48   0.0000       0.491680        13.3793 
  49   0.0000       0.504111        13.7176 
  50   0.0000       0.518645        14.1130 
  51   0.0000       0.523410        14.2427 
  52   0.0000       0.554659        15.0931 
  53   0.0000       0.574758        15.6400 
  54   0.0000       0.618597        16.8329 
  55   0.0000       0.628181        17.0937 
  56   0.0000       0.636377        17.3167 
  57   0.0000       0.676948        18.4207 
  58   0.0000       0.698930        19.0188 
  59   0.0000       0.705883        19.2080 
  60   0.0000       0.718301        19.5460 
  61   0.0000       0.736090        20.0300 
  62   0.0000       0.742780        20.2121 
  63   0.0000       0.747480        20.3400 
  64   0.0000       0.770537        20.9674 
  65   0.0000       0.785401        21.3719 
  66   0.0000       0.812898        22.1201 
  67   0.0000       0.842503        22.9257 
  68   0.0000       0.859646        23.3922 
  69   0.0000       0.886161        24.1137 
  70   0.0000       0.906806        24.6754 
  71   0.0000       0.937734        25.5171 
  72   0.0000       0.985184        26.8082 
  73   0.0000       1.012801        27.5597 
  74   0.0000       1.104537        30.0560 
  75   0.0000       1.129781        30.7429 
  76   0.0000       1.144322        31.1386 
  77   0.0000       1.162371        31.6297 
  78   0.0000       1.175587        31.9893 
  79   0.0000       1.198361        32.6091 
  80   0.0000       1.240372        33.7523 
  81   0.0000       1.251111        34.0444 
  82   0.0000       1.277507        34.7627 
  83   0.0000       1.315865        35.8065 
  84   0.0000       1.327488        36.1228 
  85   0.0000       1.377209        37.4758 
  86   0.0000       1.384897        37.6850 
  87   0.0000       1.430918        38.9373 
  88   0.0000       1.469137        39.9772 
  89   0.0000       1.482686        40.3459 
  90   0.0000       1.533109        41.7180 
  91   0.0000       1.606879        43.7254 
  92   0.0000       1.632529        44.4234 
  93   0.0000       1.698471        46.2177 
  94   0.0000       1.761873        47.9430 
  95   0.0000       1.779256        48.4160 
  96   0.0000       1.996476        54.3269 
  97   0.0000       2.018644        54.9301 
  98   0.0000       2.274492        61.8921 
  99   0.0000       2.442988        66.4771 
 100   0.0000       2.513072        68.3842 
 101   0.0000       2.553114        69.4738 
 102   0.0000       2.581408        70.2437 
 103   0.0000       2.620017        71.2943 
 104   0.0000       2.696330        73.3709 
 105   0.0000       2.731400        74.3252 
 106   0.0000       2.809520        76.4509 
 107   0.0000       2.917969        79.4020 
 108   0.0000       2.946680        80.1832 
 109   0.0000       2.988255        81.3146 
 110   0.0000       3.053077        83.0784 
 111   0.0000       3.100152        84.3594 
 112   0.0000       3.124659        85.0263 
 113   0.0000       3.206468        87.2524 
 114   0.0000       3.220172        87.6253 
 115   0.0000       3.229328        87.8745 
 116   0.0000       3.323070        90.4253 
 117   0.0000       3.370029        91.7031 
 118   0.0000       3.389237        92.2258 
 119   0.0000       3.420955        93.0889 
 120   0.0000       3.454006        93.9883 
 121   0.0000       3.479353        94.6780 
 122   0.0000       3.505718        95.3954 
 123   0.0000       3.510886        95.5361 
 124   0.0000       3.541793        96.3771 
 125   0.0000       3.595196        97.8303 
 126   0.0000       3.632294        98.8398 
 127   0.0000       3.673335        99.9565 
 128   0.0000       3.699965       100.6812 
 129   0.0000       3.716663       101.1355 
 130   0.0000       3.752759       102.1178 
 131   0.0000       3.778896       102.8290 
 132   0.0000       3.835138       104.3594 
 133   0.0000       3.906209       106.2934 
 134   0.0000       3.915259       106.5396 
 135   0.0000       3.931331       106.9769 
 136   0.0000       3.940910       107.2376 
 137   0.0000       3.986559       108.4798 
 138   0.0000       4.018667       109.3535 
 139   0.0000       4.033658       109.7614 
 140   0.0000       4.135529       112.5335 
 141   0.0000       4.162338       113.2630 
 142   0.0000       4.244430       115.4968 
 143   0.0000       4.247924       115.5919 
 144   0.0000       4.256554       115.8267 
 145   0.0000       4.314213       117.3957 
 146   0.0000       4.344181       118.2112 
 147   0.0000       4.369159       118.8909 
 148   0.0000       4.388554       119.4186 
 149   0.0000       4.458718       121.3279 
 150   0.0000       4.484993       122.0429 
 151   0.0000       4.558982       124.0562 
 152   0.0000       4.616019       125.6083 
 153   0.0000       4.871733       132.5666 
 154   0.0000       4.880621       132.8085 
 155   0.0000       5.086354       138.4067 
 156   0.0000       5.090138       138.5097 
 157   0.0000       5.332780       145.1123 
 158   0.0000       5.374605       146.2504 
 159   0.0000       5.446576       148.2089 
 160   0.0000       5.491571       149.4332 
 161   0.0000       5.563590       151.3930 
 162   0.0000       5.665172       154.1572 
 163   0.0000       5.697552       155.0383 
 164   0.0000       5.786348       157.4545 
 165   0.0000       5.994677       163.1235 
 166   0.0000       6.314512       171.8266 
 167   0.0000       6.874198       187.0564 
 168   0.0000       7.196965       195.8394 
 169   0.0000       7.244342       197.1286 
 170   0.0000       7.266804       197.7398 
 171   0.0000       7.329942       199.4579 
 172   0.0000       7.391805       201.1412 
 173   0.0000       7.610572       207.0942 
 174   0.0000       7.618641       207.3138 
 175   0.0000       7.729136       210.3205 
 176   0.0000       8.516565       231.7475 
 177   0.0000       8.961556       243.8563 
 178   0.0000       8.979055       244.3325 
 179   0.0000       9.214388       250.7363 
 180   0.0000       9.234296       251.2780 
 181   0.0000       9.721602       264.5382 
 182   0.0000      23.685349       644.5111 
 183   0.0000      58.502110      1591.9233 

                    ********************************
                    * MULLIKEN POPULATION ANALYSIS *
                    ********************************

-----------------------
MULLIKEN ATOMIC CHARGES
-----------------------
   0 H :    0.095963
   1 H :   -0.059803
   2 Be:    0.176303
   3 H :   -0.074090
   4 F :   -0.351287
   5 C :    0.374772
   6 H :   -0.104301
   7 H :   -0.057557
Sum of atomic charges:    0.0000000

--------------------------------
MULLIKEN REDUCED ORBITAL CHARGES
--------------------------------
  0 H s       :     0.866340  s :     0.866340
      pz      :     0.001035  p :     0.037291
      px      :     0.000391
      py      :     0.035865
      dz2     :     0.000067  d :     0.000406
      dxz     :     0.000004
      dyz     :    -0.000015
      dx2y2   :     0.000349
      dxy     :     0.000002
  1 H s       :     1.020836  s :     1.020836
      pz      :     0.011748  p :     0.036786
      px      :     0.012664
      py      :     0.012375
      dz2     :     0.000393  d :     0.002181
      dxz     :     0.000465
      dyz     :     0.000311
      dx2y2   :     0.000493
      dxy     :     0.000519
  2 Bes       :     2.715116  s :     2.715116
      pz      :     0.175153  p :     1.017216
      px      :     0.024419
      py      :     0.817644
      dz2     :     0.028396  d :     0.091364
      dxz     :     0.004412
      dyz     :     0.027323
      dx2y2   :     0.018268
      dxy     :     0.012966
  3 H s       :     1.002955  s :     1.002955
      pz      :     0.015428  p :     0.070867
      px      :     0.000605
      py      :     0.054833
      dz2     :    -0.000092  d :     0.000268
      dxz     :     0.000002
      dyz     :     0.000174
      dx2y2   :     0.000184
      dxy     :     0.000000
  4 F s       :     3.939858  s :     3.939858
      pz      :     1.736078  p :     5.388896
      px      :     1.959589
      py      :     1.693229
      dz2     :     0.005305  d :     0.022076
      dxz     :     0.002876
      dyz     :     0.006389
      dx2y2   :     0.004535
      dxy     :     0.002971
      f0      :     0.000047  f :     0.000457
      f+1     :     0.000013
      f-1     :     0.000139
      f+2     :     0.000138
      f-2     :     0.000056
      f+3     :     0.000023
      f-3     :     0.000041
  5 C s       :     2.971130  s :     2.971130
      pz      :     0.796207  p :     2.570641
      px      :     0.900090
      py      :     0.874344
      dz2     :    -0.043602  d :     0.073616
      dxz     :     0.031900
      dyz     :     0.030078
      dx2y2   :     0.045938
      dxy     :     0.009302
      f0      :     0.001369  f :     0.009841
      f+1     :     0.000361
      f-1     :     0.002193
      f+2     :     0.002310
      f-2     :     0.001877
      f+3     :     0.000855
      f-3     :     0.000876
  6 H s       :     1.082582  s :     1.082582
      pz      :     0.006093  p :     0.021287
      px      :     0.000947
      py      :     0.014248
      dz2     :     0.000099  d :     0.000432
      dxz     :    -0.000000
      dyz     :     0.000035
      dx2y2   :     0.000294
      dxy     :     0.000003
  7 H s       :     1.016486  s :     1.016486
      pz      :     0.016173  p :     0.038893
      px      :     0.009676
      py      :     0.013043
      dz2     :     0.000462  d :     0.002178
      dxz     :     0.000412
      dyz     :     0.000391
      dx2y2   :     0.000480
      dxy     :     0.000433


                     *******************************
                     * LOEWDIN POPULATION ANALYSIS *
                     *******************************

----------------------
LOEWDIN ATOMIC CHARGES
----------------------
   0 H :    0.083324
   1 H :   -0.047838
   2 Be:    0.374343
   3 H :    0.073778
   4 F :   -0.224512
   5 C :   -0.100383
   6 H :   -0.110154
   7 H :   -0.048558

-------------------------------
LOEWDIN REDUCED ORBITAL CHARGES
-------------------------------
  0 H s       :     0.727653  s :     0.727653
      pz      :     0.061477  p :     0.182860
      px      :     0.003908
      py      :     0.117475
      dz2     :     0.001207  d :     0.006163
      dxz     :     0.000012
      dyz     :     0.000854
      dx2y2   :     0.004067
      dxy     :     0.000023
  1 H s       :     0.729292  s :     0.729292
      pz      :     0.087110  p :     0.290549
      px      :     0.125998
      py      :     0.077441
      dz2     :     0.004633  d :     0.027998
      dxz     :     0.007894
      dyz     :     0.003535
      dx2y2   :     0.006674
      dxy     :     0.005261
  2 Bes       :     2.447448  s :     2.447448
      pz      :     0.209679  p :     0.912819
      px      :     0.039813
      py      :     0.663327
      dz2     :     0.093472  d :     0.265390
      dxz     :     0.012013
      dyz     :     0.061407
      dx2y2   :     0.066698
      dxy     :     0.031800
  3 H s       :     0.764986  s :     0.764986
      pz      :     0.062563  p :     0.155376
      px      :     0.001063
      py      :     0.091750
      dz2     :     0.000709  d :     0.005861
      dxz     :     0.000012
      dyz     :     0.001585
      dx2y2   :     0.003551
      dxy     :     0.000004
  4 F s       :     3.633438  s :     3.633438
      pz      :     1.737519  p :     5.330787
      px      :     1.870973
      py      :     1.722294
      dz2     :     0.065447  d :     0.259253
      dxz     :     0.042817
      dyz     :     0.067188
      dx2y2   :     0.049369
      dxy     :     0.034432
      f0      :     0.000136  f :     0.001034
      f+1     :     0.000037
      f-1     :     0.000291
      f+2     :     0.000220
      f-2     :     0.000178
      f+3     :     0.000069
      f-3     :     0.000103
  5 C s       :     2.725074  s :     2.725074
      pz      :     0.814770  p :     2.670057
      px      :     0.954390
      py      :     0.900896
      dz2     :     0.120916  d :     0.638969
      dxz     :     0.142760
      dyz     :     0.169437
      dx2y2   :     0.156514
      dxy     :     0.049342
      f0      :     0.009843  f :     0.066283
      f+1     :     0.003011
      f-1     :     0.015243
      f+2     :     0.014938
      f-2     :     0.011244
      f+3     :     0.005278
      f-3     :     0.006725
  6 H s       :     1.024480  s :     1.024480
      pz      :     0.018811  p :     0.083165
      px      :     0.001840
      py      :     0.062514
      dz2     :     0.000584  d :     0.002509
      dxz     :     0.000001
      dyz     :     0.000225
      dx2y2   :     0.001650
      dxy     :     0.000051
  7 H s       :     0.729185  s :     0.729185
      pz      :     0.093339  p :     0.291320
      px      :     0.120056
      py      :     0.077925
      dz2     :     0.005355  d :     0.028053
      dxz     :     0.007768
      dyz     :     0.004357
      dx2y2   :     0.006126
      dxy     :     0.004447


                      *****************************
                      * MAYER POPULATION ANALYSIS *
                      *****************************

  NA   - Mulliken gross atomic population
  ZA   - Total nuclear charge
  QA   - Mulliken gross atomic charge
  VA   - Mayer's total valence
  BVA  - Mayer's bonded valence
  FA   - Mayer's free valence

  ATOM       NA         ZA         QA         VA         BVA        FA
  0 H      0.9040     1.0000     0.0960     1.0419     1.0419    -0.0000
  1 H      1.0598     1.0000    -0.0598     1.0394     1.0394    -0.0000
  2 Be     3.8237     4.0000     0.1763     2.2154     2.2154     0.0000
  3 H      1.0741     1.0000    -0.0741     1.0349     1.0349    -0.0000
  4 F      9.3513     9.0000    -0.3513     0.7759     0.7759    -0.0000
  5 C      5.6252     6.0000     0.3748     3.8076     3.8076     0.0000
  6 H      1.1043     1.0000    -0.1043     1.0404     1.0404     0.0000
  7 H      1.0576     1.0000    -0.0576     1.0526     1.0526    -0.0000

  Mayer bond orders larger than 0.100000
B(  0-H ,  2-Be) :   0.1147 B(  0-H ,  3-H ) :   0.9432 B(  1-H ,  5-C ) :   1.0248 
B(  2-Be,  3-H ) :   0.1180 B(  2-Be,  5-C ) :   1.0465 B(  2-Be,  6-H ) :   0.8917 
B(  4-F ,  5-C ) :   0.7169 B(  5-C ,  7-H ) :   1.0272 

-------
TIMINGS
-------

Total SCF time: 0 days 0 hours 0 min 1 sec 

Total time                  ....       1.933 sec
Sum of individual times     ....       1.816 sec  ( 94.0%)

Fock matrix formation       ....       1.446 sec  ( 74.8%)
  XC integration            ....       0.363 sec  ( 25.1% of F)
    Basis function eval.    ....       0.063 sec  ( 17.4% of XC)
    Density eval.           ....       0.043 sec  ( 11.8% of XC)
    XC-Functional eval.     ....       0.013 sec  (  3.6% of XC)
    XC-Potential eval.      ....       0.078 sec  ( 21.4% of XC)
Diagonalization             ....       0.035 sec  (  1.8%)
Density matrix formation    ....       0.006 sec  (  0.3%)
Population analysis         ....       0.006 sec  (  0.3%)
Initial guess               ....       0.104 sec  (  5.4%)
Orbital Transformation      ....       0.000 sec  (  0.0%)
Orbital Orthonormalization  ....       0.000 sec  (  0.0%)
DIIS solution               ....       0.015 sec  (  0.8%)
SOSCF solution              ....       0.005 sec  (  0.2%)
Grid generation             ....       0.200 sec  ( 10.4%)


           ************************************************************
           *        Program running with 24 parallel MPI-processes    *
           *              working on a common directory               *
           ************************************************************

------------------------------------------------------------------------------
                                ORCA  MP2 
------------------------------------------------------------------------------

Freezing NCore=4 chemical core electrons

-------------
RI-MP2 ENERGY
-------------
Dimension of the basis                    ...  184
Memory devoted to MP2                     ... 5000 MB   
Data format for buffers                   ... DOUBLE
Compression type for matrix containers    ... UNCOMPRESSED
Scaling for aa/bb pairs                   ...   4.000e-01
Scaling for ab pairs                      ...   4.700e-01
Overall scaling of the MP2 energy         ...   1.000e+00
Calculating two index integrals           ... done (    0.002 sec)
Cholesky decomposition of V**-1           ... done (    0.022 sec)

-----------------
RI-TRANSFORMATION (AUX index driven)
-----------------

Dimension of the orbital-basis         ... 184
Dimension of the aux-basis             ... 437
Transformation of internal/external MOs...    2-  11 to   12- 183
Number Format for Storage              ... Double (8 Byte)
Integral mode                          ... Direct

First Phase: integral generation and transformation of MO indices
  Aux angular momentum 0               ... done (    0.003 sec)
  Aux angular momentum 1               ... done (    0.003 sec)
  Aux angular momentum 2               ... done (    0.004 sec)
  Aux angular momentum 3               ... done (    0.003 sec)
  Aux angular momentum 4               ... done (    0.004 sec)
Closing buffer VIA ( 0.01 GB; CompressionRatio= 1.00)
  Phase 1 completed in     0.116 sec
Second Phase: sorting and transformation of aux index

IA-Transformation
Memory available                       ... 4996 MB 
Max. # MO pairs treated in a batch     ... 1    
# of internal orbitals                 ... 10
# batches for internal orbitals        ... 1
Closing buffer IAV ( 0.00 GB; CompressionRatio= 1.00)
(ia|v) transformation done in     0.005 sec

  Phase 2 completed in     0.012 sec
RI-Integral transformation completed in     0.129 sec
Opening buffers                              ... done

Starting loop over batches of integrals:

Operator 0  - window                       ... (  2- 11)x( 12-183)
Operator 0  - Memory available             ...  5000 MB
Operator 0  - Memory needed per MO         ...   0.6 MB
Operator 0  - Number of orbitals per batch ... 1
Operator 0  - Number of batches            ... 1

OPERATOR  0   PASS   0:  MOs     2 ...    2 +    3 ...    3 +    4 ...    4 +    5 ...    5
                            +    6 ...    6 +    7 ...    7 +    8 ...    8 +    9 ...    9
                            +   10 ...   10 +   11 ...   11
  Reading integrals       ... ok
Time spent in pair loops =     0.003 sec
Deleting buffer (Ka|jb)[aa] ...done

-----------------------------------------------
 RI-MP2 CORRELATION ENERGY:     -0.271672093 Eh
-----------------------------------------------


-------
TIMINGS
-------

Total time                :    0.184 sec
Integral trafo            :    0.148 sec ( 80.7%)
I/O of integrals          :    0.001 sec (  0.3%)
K(i,j) Operators          :    0.001 sec (  0.3%)
T(i,j) pair energies      :    0.000 sec (  0.1%)
V-calculation             :    0.002 sec (  1.3%)
V**(-1/2)                 :    0.022 sec ( 12.0%)
Gamma(ia|P)               :    0.000 sec (  0.0%)
Gamma-Trafo               :    0.000 sec (  0.0%)
D(virtual)                :    0.000 sec (  0.0%)
D(internal)               :    0.000 sec (  0.0%)
W(virtual)                :    0.000 sec (  0.0%)
W(internal)               :    0.000 sec (  0.0%)
L(virtual)                :    0.000 sec (  0.0%)
L(internal)               :    0.000 sec (  0.0%)
G(D)                      :    0.000 sec (  0.0%)
G(Z)                      :    0.000 sec (  0.0%)
Z-Vector Solution         :    0.000 sec (  0.0%)
Z-Vector Solution         :    0.000 sec (  0.0%)
3-Index Derivative 
+ Separable RIJ part      :    0.000 sec (  0.0%)
2-Index Derivative 
+ Separable RIJ part      :    0.000 sec (  0.0%)
Separable Gradient (X)    :    0.000 sec (  0.0%)


---------------------------------------
MP2 TOTAL ENERGY:     -155.537421391 Eh
---------------------------------------


-------------------------------------------------------------------------------
                          DFT DISPERSION CORRECTION                            
                                                                               
                              DFTD3 V3.1  Rev 1                                
                          USING Becke-Johnson damping                          
-------------------------------------------------------------------------------
The DSD-BLYP/2013 functional is recognized
Active option DFTDOPT                   ...         4   

molecular C6(AA) [au] = 518.176448 


            DFT-D V3
 parameters
 s6 scaling factor         :     0.5700 
 a1 scaling factor         :     0.0000 
 s8 scaling factor         :     0.0000 
 a2 scaling factor         :     5.4000 
 ad hoc parameters k1-k3   :    16.0000     1.3333    -4.0000 

 Edisp/kcal,au: -2.306662013265  -0.003675899508 
 E6   /kcal   :  -2.306662013 
 E8   /kcal   :  -0.000000000 
 % E8         :   0.000000000 

-------------------------   ----------------
Dispersion correction           -0.003675900
-------------------------   ----------------


-------------------------   --------------------
FINAL SINGLE POINT ENERGY      -155.541097290632
-------------------------   --------------------


                            ***************************************
                            *     ORCA property calculations      *
                            ***************************************


  WARNING: The energy has been calculated at the MP2 level but the densities
           used in the property calculations are still SCF densities
           MP2 response densities have not been calculated 
           use %mp2 Density relaxed end
           or  %mp2 Density unrelaxed end

                                    ---------------------
                                    Active property flags
                                    ---------------------
   (+) Dipole Moment


------------------------------------------------------------------------------
                       ORCA ELECTRIC PROPERTIES CALCULATION
------------------------------------------------------------------------------

Dipole Moment Calculation                       ... on
Quadrupole Moment Calculation                   ... off
Polarizability Calculation                      ... off
GBWName                                         ... 070.gbw
Electron density file                           ... 070.scfp
The origin for moment calculation is the CENTER OF MASS  = (-0.053914, -1.247217 -0.240472)

-------------
DIPOLE MOMENT
-------------
                                X             Y             Z
Electronic contribution:     -0.19490      -3.50788      -0.76963
Nuclear contribution   :      0.26588       3.83479       0.81982
                        -----------------------------------------
Total Dipole Moment    :      0.07098       0.32691       0.05019
                        -----------------------------------------
Magnitude (a.u.)       :      0.33827
Magnitude (Debye)      :      0.85982



--------------------
Rotational spectrum 
--------------------
 
Rotational constants in cm-1:     0.879452     0.304630     0.236523 
Rotational constants in MHz : 26365.310047  9132.583609  7090.795310 

 Dipole components along the rotational axes: 
x,y,z [a.u.] :     0.326913     0.050189    -0.070975 
x,y,z [Debye]:     0.830947     0.127569    -0.180405 

 

Timings for individual modules:

Sum of individual times         ...        3.509 sec (=   0.058 min)
GTO integral calculation        ...        0.583 sec (=   0.010 min)  16.6 %
SCF iterations                  ...        2.279 sec (=   0.038 min)  64.9 %
MP2 module                      ...        0.647 sec (=   0.011 min)  18.4 %
                             ****ORCA TERMINATED NORMALLY****
TOTAL RUN TIME: 0 days 0 hours 0 minutes 3 seconds 993 msec
