
                                 *****************
                                 * O   R   C   A *
                                 *****************

           --- An Ab Initio, DFT and Semiempirical electronic structure package ---

                  #######################################################
                  #                        -***-                        #
                  #          Department of theory and spectroscopy      #
                  #               Directorship: Frank Neese             #
                  #        Max Planck Institute fuer Kohlenforschung    #
                  #                Kaiser Wilhelm Platz 1               #
                  #                 D-45470 Muelheim/Ruhr               #
                  #                      Germany                        #
                  #                                                     #
                  #                  All rights reserved                #
                  #                        -***-                        #
                  #######################################################


                         Program Version 4.2.0 -  RELEASE  -


 With contributions from (in alphabetic order):
   Daniel Aravena         : Magnetic Suceptibility
   Michael Atanasov       : Ab Initio Ligand Field Theory (pilot matlab implementation)
   Alexander A. Auer      : GIAO ZORA, VPT2
   Ute Becker             : Parallelization
   Giovanni Bistoni       : ED, misc. LED, open-shell LED, HFLED
   Martin Brehm           : Molecular dynamics
   Dmytro Bykov           : SCF Hessian
   Vijay G. Chilkuri      : MRCI spin determinant printing, contributions to CSF-ICE
   Dipayan Datta          : RHF DLPNO-CCSD density
   Achintya Kumar Dutta   : EOM-CC, STEOM-CC
   Dmitry Ganyushin       : Spin-Orbit,Spin-Spin,Magnetic field MRCI
   Miquel Garcia          : C-PCM Hessian, Gaussian charge scheme
   Yang Guo               : DLPNO-NEVPT2, CIM, IAO-localization
   Andreas Hansen         : Spin unrestricted coupled pair/coupled cluster methods
   Benjamin Helmich-Paris : CASSCF linear response (MC-RPA)
   Lee Huntington         : MR-EOM, pCC
   Robert Izsak           : Overlap fitted RIJCOSX, COSX-SCS-MP3, EOM
   Christian Kollmar      : KDIIS, OOCD, Brueckner-CCSD(T), CCSD density
   Simone Kossmann        : Meta GGA functionals, TD-DFT gradient, OOMP2, MP2 Hessian
   Martin Krupicka        : AUTO-CI
   Lucas Lang             : DCDCAS
   Dagmar Lenk            : GEPOL surface, SMD
   Dimitrios Liakos       : Extrapolation schemes; Compound Job, initial MDCI parallelization
   Dimitrios Manganas     : Further ROCIS development; embedding schemes
   Dimitrios Pantazis     : SARC Basis sets
   Taras Petrenko         : DFT Hessian,TD-DFT gradient, ASA, ECA, R-Raman, ABS, FL, XAS/XES, NRVS
   Peter Pinski           : DLPNO-MP2, DLPNO-MP2 Gradient
   Christoph Reimann      : Effective Core Potentials
   Marius Retegan         : Local ZFS, SOC
   Christoph Riplinger    : Optimizer, TS searches, QM/MM, DLPNO-CCSD(T), (RO)-DLPNO pert. Triples
   Tobias Risthaus        : Range-separated hybrids, TD-DFT gradient, RPA, STAB
   Michael Roemelt        : Original ROCIS implementation
   Masaaki Saitow         : Open-shell DLPNO-CCSD energy and density
   Barbara Sandhoefer     : DKH picture change effects
   Avijit Sen             : IP-ROCIS
   Kantharuban Sivalingam : CASSCF convergence, NEVPT2, FIC-MRCI
   Bernardo de Souza      : ESD, SOC TD-DFT
   Georgi Stoychev        : AutoAux, RI-MP2 NMR
   Willem Van den Heuvel  : Paramagnetic NMR
   Boris Wezisla          : Elementary symmetry handling
   Frank Wennmohs         : Technical directorship


 We gratefully acknowledge several colleagues who have allowed us to
 interface, adapt or use parts of their codes:
   Stefan Grimme, W. Hujo, H. Kruse,             : VdW corrections, initial TS optimization,
                  C. Bannwarth                     DFT functionals, gCP, sTDA/sTD-DF
   Ed Valeev, F. Pavosevic, A. Kumar             : LibInt (2-el integral package), F12 methods
   Garnet Chan, S. Sharma, J. Yang, R. Olivares  : DMRG
   Ulf Ekstrom                                   : XCFun DFT Library
   Mihaly Kallay                                 : mrcc  (arbitrary order and MRCC methods)
   Andreas Klamt, Michael Diedenhofen            : otool_cosmo (COSMO solvation model)
   Jiri Pittner, Ondrej Demel                    : Mk-CCSD
   Frank Weinhold                                : gennbo (NPA and NBO analysis)
   Christopher J. Cramer and Donald G. Truhlar   : smd solvation model
   Lars Goerigk                                  : TD-DFT with DH, B97 family of functionals
   V. Asgeirsson, H. Jonsson                     : NEB implementation
   FAccTs GmbH                                   : IRC, NEB, NEB-TS, Multilevel, MM, QM/MM, CI optimization
   S Lehtola, MJT Oliveira, MAL Marques          : LibXC Library


 Your calculation uses the libint2 library for the computation of 2-el integrals
 For citations please refer to: http://libint.valeyev.net

 Your ORCA version has been built with support for libXC version: 4.2.3
 For citations please refer to: https://tddft.org/programs/libxc/

 This ORCA versions uses:
   CBLAS   interface :  Fast vector & matrix operations
   LAPACKE interface :  Fast linear algebra routines
   SCALAPACK package :  Parallel linear algebra routines


Your calculation utilizes the atom-pairwise dispersion correction
with the Becke-Johnson damping scheme (D3BJ)
Cite in your paper:
S.Grimme, S.Ehrlich, L.Goerigk, J Comput Chem, (2011), 32, 1456–1465 
S.Grimme, J.Antony, S.Ehrlich and H.Krieg, J.Chem.Phys., 132, (2010), 154104 
   

----- Orbital basis set information -----
Your calculation utilizes the basis: def2-TZVPPD
   F. Weigend and R. Ahlrichs, Phys. Chem. Chem. Phys. 7, 3297 (2005).
   D. Rappoport and F. Furche, J. Chem. Phys. 133 134105 (2010).

----- AuxC basis set information -----
Your calculation utilizes the auxiliary basis: def2-TZVPPD/C
   A. Hellweg, C. Hattig, S. Hofener and W. Klopper, Theor. Chem. Acc. 117, 587 (2007).

----- AuxJK basis set information -----
Your calculation utilizes the auxiliary basis: def2/JK
   H-Ba, Hf-Rn: F. Weigend, J. Comput. Chem. 29, 167 (2008).

================================================================================
                                        WARNINGS
                       Please study these warnings very carefully!
================================================================================


WARNING: your system is open-shell and RHF/RKS was chosen
  ===> : WILL SWITCH to UHF/UKS


WARNING: No MP2 level density has been requested!
         To caclulate MP2 level properties use
         %mp2 Density relaxed end
         or
         %mp2 Density unrelaxed end
         Otherwise for double-hybrid DFT only the energy is correct!

WARNING: There are different parametrizations of Gershom Martin's DSD-DFs
         for use with and without D3(BJ)!
         You are using the D3(BJ) parametrized version,
         consistent with the 2013 article (S. Kozuch and J. M. L. Martin, JCC 2013, 34, 2327)

WARNING: The frozen-core approximation is turned on by default for 
         the MP2 part of double-hybrid DFT.

INFO   : the flag for use of LIBINT has been found!

================================================================================
                                       INPUT FILE
================================================================================
NAME = 123.in
|  1> #
|  2> # 123 ri-DSD-BLYP/2013-D3BJ/Def2-TZVPPD
|  3> #
|  4> ! rijk ri-dsd-blyp/2013 d3bj def2-tzvppd def2/jk def2-tzvppd/c grid4 nofinalgrid
|  5> 
|  6> *xyz 0 2
|  7> H         -0.05566       -1.00378        1.35004
|  8> H         -0.85108        0.57288        1.07820
|  9> C          0.00090       -0.05557        0.78344
| 10> H         -0.84105       -0.66759       -1.01558
| 11> H          0.91403        0.47335        1.08996
| 12> H          0.01842        1.61333       -1.60506
| 13> H          0.81267       -0.72579       -1.00914
| 14> N          0.00176       -0.20682       -0.67186
| 15> *
| 16> 
| 17> %maxcore 5000
| 18> 
| 19> %pal
| 20> nprocs = 24
| 21> end
| 22> 
| 23> 
| 24>                          ****END OF INPUT****
================================================================================

                       ****************************
                       * Single Point Calculation *
                       ****************************

---------------------------------
CARTESIAN COORDINATES (ANGSTROEM)
---------------------------------
  H     -0.055660   -1.003780    1.350040
  H     -0.851080    0.572880    1.078200
  C      0.000900   -0.055570    0.783440
  H     -0.841050   -0.667590   -1.015580
  H      0.914030    0.473350    1.089960
  H      0.018420    1.613330   -1.605060
  H      0.812670   -0.725790   -1.009140
  N      0.001760   -0.206820   -0.671860

----------------------------
CARTESIAN COORDINATES (A.U.)
----------------------------
  NO LB      ZA    FRAG     MASS         X           Y           Z
   0 H     1.0000    0     1.008   -0.105182   -1.896869    2.551206
   1 H     1.0000    0     1.008   -1.608308    1.082586    2.037503
   2 C     6.0000    0    12.011    0.001701   -0.105012    1.480487
   3 H     1.0000    0     1.008   -1.589354   -1.261562   -1.919168
   4 H     1.0000    0     1.008    1.727266    0.894502    2.059726
   5 H     1.0000    0     1.008    0.034809    3.048752   -3.033124
   6 H     1.0000    0     1.008    1.535724   -1.371544   -1.906998
   7 N     7.0000    0    14.007    0.003326   -0.390833   -1.269631

--------------------------------
INTERNAL COORDINATES (ANGSTROEM)
--------------------------------
 H      0   0   0     0.000000000000     0.00000000     0.00000000
 H      1   0   0     1.786741928091     0.00000000     0.00000000
 C      2   1   0     1.098955313241    36.00687967     0.00000000
 H      3   2   1     2.078442023079    94.96235184   102.03919305
 H      3   2   1     1.098870908569   107.10659450   243.54424698
 H      4   3   2     2.507742290926    78.27591057    79.73626460
 H      4   3   2     1.654756342185    66.55644743   154.98275484
 N      7   4   3     1.020128760206    35.80452640   324.43929458

---------------------------
INTERNAL COORDINATES (A.U.)
---------------------------
 H      0   0   0     0.000000000000     0.00000000     0.00000000
 H      1   0   0     3.376452916087     0.00000000     0.00000000
 C      2   1   0     2.076724575443    36.00687967     0.00000000
 H      3   2   1     3.927686208852    94.96235184   102.03919305
 H      3   2   1     2.076565073729   107.10659450   243.54424698
 H      4   3   2     4.738946144303    78.27591057    79.73626460
 H      4   3   2     3.127036305098    66.55644743   154.98275484
 N      7   4   3     1.927763978126    35.80452640   324.43929458

---------------------
BASIS SET INFORMATION
---------------------
There are 3 groups of distinct atoms

 Group   1 Type H   : 5s3p1d contracted to 3s3p1d pattern {311/111/1}
 Group   2 Type C   : 12s6p3d1f contracted to 6s3p3d1f pattern {621111/411/111/1}
 Group   3 Type N   : 12s6p3d1f contracted to 6s3p3d1f pattern {621111/411/111/1}

Atom   0H    basis set group =>   1
Atom   1H    basis set group =>   1
Atom   2C    basis set group =>   2
Atom   3H    basis set group =>   1
Atom   4H    basis set group =>   1
Atom   5H    basis set group =>   1
Atom   6H    basis set group =>   1
Atom   7N    basis set group =>   3
---------------------------------
AUXILIARY/C BASIS SET INFORMATION
---------------------------------
There are 3 groups of distinct atoms

 Group   1 Type H   : 5s4p3d1f contracted to 5s4p3d1f pattern {11111/1111/111/1}
 Group   2 Type C   : 9s7p6d4f1g contracted to 9s7p5d4f1g pattern {111111111/1111111/21111/1111/1}
 Group   3 Type N   : 9s7p6d4f1g contracted to 9s7p5d4f1g pattern {111111111/1111111/21111/1111/1}

Atom   0H    basis set group =>   1
Atom   1H    basis set group =>   1
Atom   2C    basis set group =>   2
Atom   3H    basis set group =>   1
Atom   4H    basis set group =>   1
Atom   5H    basis set group =>   1
Atom   6H    basis set group =>   1
Atom   7N    basis set group =>   3
----------------------------------
AUXILIARY/JK BASIS SET INFORMATION
----------------------------------
There are 3 groups of distinct atoms

 Group   1 Type H   : 4s2p2d contracted to 2s2p2d pattern {31/11/11}
 Group   2 Type C   : 14s10p6d2f1g contracted to 10s8p5d1f1g pattern {5111111111/31111111/21111/2/1}
 Group   3 Type N   : 14s10p6d2f1g contracted to 10s8p4d2f1g pattern {5111111111/31111111/3111/11/1}

Atom   0H    basis set group =>   1
Atom   1H    basis set group =>   1
Atom   2C    basis set group =>   2
Atom   3H    basis set group =>   1
Atom   4H    basis set group =>   1
Atom   5H    basis set group =>   1
Atom   6H    basis set group =>   1
Atom   7N    basis set group =>   3


           ************************************************************
           *        Program running with 24 parallel MPI-processes    *
           *              working on a common directory               *
           ************************************************************
------------------------------------------------------------------------------
                           ORCA GTO INTEGRAL CALCULATION
                           -- RI-GTO INTEGRALS CHOSEN --
------------------------------------------------------------------------------

                         BASIS SET STATISTICS AND STARTUP INFO

Gaussian basis set:
 # of primitive gaussian shells          ...   98
 # of primitive gaussian functions       ...  218
 # of contracted shells                  ...   68
 # of contracted basis functions         ...  176
 Highest angular momentum                ...    3
 Maximum contraction depth               ...    6
Auxiliary gaussian basis set:
 # of primitive gaussian shells          ...  114
 # of primitive gaussian functions       ...  314
 # of contracted shells                  ...   86
 # of contracted aux-basis functions     ...  260
 Highest angular momentum                ...    4
 Maximum contraction depth               ...    5
Ratio of auxiliary to basis functions    ...  1.48
Integral package used                  ... LIBINT
 One Electron integrals                  ... done
 Ordering auxiliary basis shells         ... done
 Integral threshhold             Thresh  ...  1.000e-10
 Primitive cut-off               TCut    ...  1.000e-11
 Pre-screening matrix                    ... done
 Shell pair data                         ... 
 Ordering of the shell pairs             ... done (   0.000 sec) 2337 of 2346 pairs
 Determination of significant pairs      ... done (   0.000 sec)
 Creation of shell pair data             ... done (   0.000 sec)
 Storage of shell pair data              ... done (   0.014 sec)
 Shell pair data done in (   0.015 sec)
 Computing two index integrals           ... done
 Cholesky decomposition of the V-matrix  ... done


Timings:
 Total evaluation time                   ...   0.172 sec (  0.003 min)
 One electron matrix time                ...   0.021 sec (  0.000 min) = 12.4%
 Schwartz matrix evaluation time         ...   0.115 sec (  0.002 min) = 66.5%
 Two index repulsion integral time       ...   0.001 sec (  0.000 min) =  0.8%
 Cholesky decomposition of V             ...   0.001 sec (  0.000 min) =  0.8%
 Three index repulsion integral time     ...   0.000 sec (  0.000 min) =  0.0%



           ************************************************************
           *        Program running with 24 parallel MPI-processes    *
           *              working on a common directory               *
           ************************************************************
-------------------------------------------------------------------------------
                                 ORCA SCF
-------------------------------------------------------------------------------

------------
SCF SETTINGS
------------
Hamiltonian:
 Density Functional     Method          .... DFT(GTOs)
 Exchange Functional    Exchange        .... B88
   X-Alpha parameter    XAlpha          ....  0.666667
   Becke's b parameter  XBeta           ....  0.004200
 Correlation Functional Correlation     .... LYP
 LDA part of GGA corr.  LDAOpt          .... VWN-5
 Gradients option       PostSCFGGA      .... off
 Hybrid DFT is turned on
   Fraction HF Exchange ScalHFX         ....  0.710000
   Scaling of DF-GGA-X  ScalDFX         ....  0.290000
   Scaling of DF-GGA-C  ScalDFC         ....  0.540000
   Scaling of DF-LDA-C  ScalLDAC        ....  0.540000
   Perturbative correction              ....  1.000000
   Density functional embedding theory  .... OFF
 RI-approximation to the Coulomb term is turned on
   Number of auxiliary basis functions  .... 260
   RI-JK (J+K treated both via RI)      .... on


General Settings:
 Integral files         IntName         .... 123
 Hartree-Fock type      HFTyp           .... UHF
 Total Charge           Charge          ....    0
 Multiplicity           Mult            ....    2
 Number of Electrons    NEL             ....   19
 Basis Dimension        Dim             ....  176
 Nuclear Repulsion      ENuc            ....     45.6194448278 Eh

Convergence Acceleration:
 DIIS                   CNVDIIS         .... on
   Start iteration      DIISMaxIt       ....    12
   Startup error        DIISStart       ....  0.200000
   # of expansion vecs  DIISMaxEq       ....     5
   Bias factor          DIISBfac        ....   1.050
   Max. coefficient     DIISMaxC        ....  10.000
 Newton-Raphson         CNVNR           .... off
 SOSCF                  CNVSOSCF        .... off
 Level Shifting         CNVShift        .... on
   Level shift para.    LevelShift      ....    0.2500
   Turn off err/grad.   ShiftErr        ....    0.0010
 Zerner damping         CNVZerner       .... off
 Static damping         CNVDamp         .... on
   Fraction old density DampFac         ....    0.7000
   Max. Damping (<1)    DampMax         ....    0.9800
   Min. Damping (>=0)   DampMin         ....    0.0000
   Turn off err/grad.   DampErr         ....    0.1000
 Fernandez-Rico         CNVRico         .... off

SCF Procedure:
 Maximum # iterations   MaxIter         ....   125
 SCF integral mode      SCFMode         .... Direct
   Integral package                     .... LIBINT
 Reset frequency        DirectResetFreq ....    20
 Integral Threshold     Thresh          ....  1.000e-10 Eh
 Primitive CutOff       TCut            ....  1.000e-11 Eh

Convergence Tolerance:
 Convergence Check Mode ConvCheckMode   .... Total+1el-Energy
 Convergence forced     ConvForced      .... 0
 Energy Change          TolE            ....  1.000e-06 Eh
 1-El. energy change                    ....  1.000e-03 Eh
 DIIS Error             TolErr          ....  1.000e-06


Diagonalization of the overlap matrix:
Smallest eigenvalue                        ... 2.946e-05
Time for diagonalization                   ...    0.006 sec
Threshold for overlap eigenvalues          ... 1.000e-08
Number of eigenvalues below threshold      ... 0
Time for construction of square roots      ...    0.003 sec
Total time needed                          ...    0.009 sec

-------------------
DFT GRID GENERATION
-------------------

General Integration Accuracy     IntAcc      ...  4.670
Radial Grid Type                 RadialGrid  ... Gauss-Chebyshev
Angular Grid (max. acc.)         AngularGrid ... Lebedev-302
Angular grid pruning method      GridPruning ... 3 (G Style)
Weight generation scheme         WeightScheme... Becke
Basis function cutoff            BFCut       ...    1.0000e-10
Integration weight cutoff        WCut        ...    1.0000e-14
Grids for H and He will be reduced by one unit

# of grid points (after initial pruning)     ...  32788 (   0.0 sec)
# of grid points (after weights+screening)   ...  31357 (   0.0 sec)
nearest neighbour list constructed           ...    0.0 sec
Grid point re-assignment to atoms done       ...    0.0 sec
Grid point division into batches done        ...    0.1 sec
Reduced shell lists constructed in    0.1 sec

Total number of grid points                  ...    31357
Total number of batches                      ...      493
Average number of points per batch           ...       63
Average number of grid points per atom       ...     3920
Average number of shells per batch           ...    31.41 (46.19%)
Average number of basis functions per batch  ...    76.59 (43.52%)
Average number of large shells per batch     ...    23.68 (75.40%)
Average number of large basis fcns per batch ...    57.59 (75.19%)
Average number of aux-shells per batch       ...    31.41 (36.52%)
Average number of aux functions per batch    ...    76.59 (29.46%)
Maximum spatial batch extension              ...  16.67, 14.98, 15.89 au
Average spatial batch extension              ...   0.35,  0.34,  0.32 au

Time for grid setup =    0.161 sec

------------------------------
INITIAL GUESS: MODEL POTENTIAL
------------------------------
Loading Hartree-Fock densities                     ... done
Calculating cut-offs                               ... done
Setting up the integral package                    ... done
Initializing the effective Hamiltonian             ... done
Starting the Coulomb interaction                   ... done (   0.0 sec)
Reading the grid                                   ... done
Mapping shells                                     ... done
Starting the XC term evaluation                    ... done (   0.0 sec)
  promolecular density results
     # of electrons  =     18.997134359
     EX              =    -13.442963504
     EC              =     -0.059570606
     EX+EC           =    -13.502534111
Transforming the Hamiltonian                       ... done (   0.0 sec)
Diagonalizing the Hamiltonian                      ... done (   0.0 sec)
Back transforming the eigenvectors                 ... done (   0.0 sec)
Now organizing SCF variables                       ... done
                      ------------------
                      INITIAL GUESS DONE (   0.3 sec)
                      ------------------
--------------
SCF ITERATIONS
--------------
ITER       Energy         Delta-E        Max-DP      RMS-DP      [F,P]     Damp
  0    -95.9406178765   0.000000000000 0.02034871  0.00042412  0.2621779 0.7000
  1    -95.8744113206   0.066206555874 0.01872664  0.00044167  0.2213226 0.7000
                               ***Turning on DIIS***
  2    -95.9006989899  -0.026287669258 0.01426855  0.00029789  0.1101720 0.7000
  3    -95.9625279441  -0.061828954279 0.06769024  0.00065635  0.0375703 0.0000
  4    -96.0562419592  -0.093714015051 0.01546051  0.00019106  0.0482313 0.0000
  5    -96.0610468827  -0.004804923512 0.01192018  0.00013083  0.0278954 0.0000
  6    -96.0624518445  -0.001404961772 0.00940393  0.00009866  0.0106475 0.0000
  7    -96.0628532776  -0.000401433088 0.00670989  0.00006929  0.0040934 0.0000
  8    -96.0629662493  -0.000112971728 0.00494779  0.00005278  0.0024553 0.0000
  9    -96.0630155102  -0.000049260910 0.00399425  0.00004453  0.0015612 0.0000
 10    -96.0630404556  -0.000024945368 0.00440614  0.00005228  0.0008169 0.0000
 11    -96.0630493164  -0.000008860810 0.00055386  0.00000782  0.0000876 0.0000
                 **** Energy Check signals convergence ****

               *****************************************************
               *                     SUCCESS                       *
               *           SCF CONVERGED AFTER  12 CYCLES          *
               *****************************************************


----------------
TOTAL SCF ENERGY
----------------

Total Energy       :          -96.06304949 Eh           -2614.00847 eV

Components:
Nuclear Repulsion  :           45.61944483 Eh            1241.36820 eV
Electronic Energy  :         -141.68249432 Eh           -3855.37667 eV
One Electron Energy:         -219.07585902 Eh           -5961.35719 eV
Two Electron Energy:           77.39336470 Eh            2105.98052 eV

Virial components:
Potential Energy   :         -191.75531595 Eh           -5217.92742 eV
Kinetic Energy     :           95.69226646 Eh            2603.91895 eV
Virial Ratio       :            2.00387474


DFT components:
N(Alpha)           :       10.000017983581 electrons
N(Beta)            :        9.000016443883 electrons
N(Total)           :       19.000034427464 electrons
E(X)               :       -4.024237004445 Eh       
E(C)               :       -0.314122745237 Eh       
E(XC)              :       -4.338359749681 Eh       
DFET-embed. en.    :        0.000000000000 Eh       

---------------
SCF CONVERGENCE
---------------

  Last Energy change         ...   -1.7162e-07  Tolerance :   1.0000e-06
  Last MAX-Density change    ...    9.5731e-05  Tolerance :   1.0000e-05
  Last RMS-Density change    ...    1.4181e-06  Tolerance :   1.0000e-06
  Last DIIS Error            ...    1.6513e-05  Tolerance :   1.0000e-06

             **** THE GBW FILE WAS UPDATED (123.gbw) ****
             **** DENSITY FILE WAS UPDATED (123.scfp) ****
             **** ENERGY FILE WAS UPDATED (123.en.tmp) ****
----------------------
UHF SPIN CONTAMINATION
----------------------

Warning: in a DFT calculation there is little theoretical justification to 
         calculate <S**2> as in Hartree-Fock theory. We will do it anyways
         but you should keep in mind that the values have only limited relevance

Expectation value of <S**2>     :     0.754486
Ideal value S*(S+1) for S=0.5   :     0.750000
Deviation                       :     0.004486

             **** THE GBW FILE WAS UPDATED (123.gbw) ****
             **** DENSITY FILE WAS UPDATED (123.scfp) ****
----------------
ORBITAL ENERGIES
----------------
                 SPIN UP ORBITALS
  NO   OCC          E(Eh)            E(eV) 
   0   1.0000     -15.116081      -411.3295 
   1   1.0000     -10.876577      -295.9667 
   2   1.0000      -1.080737       -29.4083 
   3   1.0000      -0.822423       -22.3793 
   4   1.0000      -0.617524       -16.8037 
   5   1.0000      -0.560332       -15.2474 
   6   1.0000      -0.522911       -14.2291 
   7   1.0000      -0.475246       -12.9321 
   8   1.0000      -0.415156       -11.2970 
   9   1.0000      -0.296190        -8.0597 
  10   0.0000       0.050617         1.3774 
  11   0.0000       0.072998         1.9864 
  12   0.0000       0.104734         2.8499 
  13   0.0000       0.125301         3.4096 
  14   0.0000       0.141487         3.8501 
  15   0.0000       0.146379         3.9832 
  16   0.0000       0.167978         4.5709 
  17   0.0000       0.170404         4.6369 
  18   0.0000       0.198185         5.3929 
  19   0.0000       0.216916         5.9026 
  20   0.0000       0.219346         5.9687 
  21   0.0000       0.229126         6.2348 
  22   0.0000       0.250433         6.8146 
  23   0.0000       0.254799         6.9334 
  24   0.0000       0.276486         7.5236 
  25   0.0000       0.298012         8.1093 
  26   0.0000       0.298557         8.1241 
  27   0.0000       0.329351         8.9621 
  28   0.0000       0.336983         9.1698 
  29   0.0000       0.344347         9.3702 
  30   0.0000       0.356447         9.6994 
  31   0.0000       0.360196         9.8014 
  32   0.0000       0.362560         9.8658 
  33   0.0000       0.373507        10.1637 
  34   0.0000       0.386241        10.5101 
  35   0.0000       0.394745        10.7416 
  36   0.0000       0.432865        11.7789 
  37   0.0000       0.434801        11.8315 
  38   0.0000       0.446437        12.1482 
  39   0.0000       0.450162        12.2495 
  40   0.0000       0.473262        12.8781 
  41   0.0000       0.485061        13.1992 
  42   0.0000       0.530917        14.4470 
  43   0.0000       0.554999        15.1023 
  44   0.0000       0.574908        15.6441 
  45   0.0000       0.578864        15.7517 
  46   0.0000       0.613000        16.6806 
  47   0.0000       0.649921        17.6852 
  48   0.0000       0.667536        18.1646 
  49   0.0000       0.673060        18.3149 
  50   0.0000       0.691991        18.8300 
  51   0.0000       0.780991        21.2518 
  52   0.0000       0.792060        21.5530 
  53   0.0000       0.798868        21.7383 
  54   0.0000       0.820714        22.3328 
  55   0.0000       0.832304        22.6481 
  56   0.0000       0.868868        23.6431 
  57   0.0000       0.925080        25.1727 
  58   0.0000       0.965757        26.2796 
  59   0.0000       0.976026        26.5590 
  60   0.0000       0.985040        26.8043 
  61   0.0000       1.034957        28.1626 
  62   0.0000       1.036941        28.2166 
  63   0.0000       1.095901        29.8210 
  64   0.0000       1.105279        30.0762 
  65   0.0000       1.141344        31.0575 
  66   0.0000       1.192046        32.4372 
  67   0.0000       1.224008        33.3070 
  68   0.0000       1.229904        33.4674 
  69   0.0000       1.270414        34.5697 
  70   0.0000       1.299534        35.3621 
  71   0.0000       1.302765        35.4500 
  72   0.0000       1.367065        37.1997 
  73   0.0000       1.391108        37.8540 
  74   0.0000       1.399259        38.0758 
  75   0.0000       1.453855        39.5614 
  76   0.0000       1.482909        40.3520 
  77   0.0000       1.517891        41.3039 
  78   0.0000       1.574557        42.8459 
  79   0.0000       1.612252        43.8716 
  80   0.0000       1.639260        44.6065 
  81   0.0000       1.733802        47.1791 
  82   0.0000       1.743914        47.4543 
  83   0.0000       1.847362        50.2693 
  84   0.0000       1.855190        50.4823 
  85   0.0000       1.898850        51.6703 
  86   0.0000       1.954223        53.1771 
  87   0.0000       2.004939        54.5572 
  88   0.0000       2.007561        54.6285 
  89   0.0000       2.246819        61.1391 
  90   0.0000       2.341863        63.7253 
  91   0.0000       2.482942        67.5643 
  92   0.0000       2.616953        71.2109 
  93   0.0000       2.761033        75.1315 
  94   0.0000       2.801384        76.2295 
  95   0.0000       2.860545        77.8394 
  96   0.0000       2.863543        77.9210 
  97   0.0000       2.904527        79.0362 
  98   0.0000       2.917639        79.3930 
  99   0.0000       3.025675        82.3328 
 100   0.0000       3.050145        82.9987 
 101   0.0000       3.107731        84.5656 
 102   0.0000       3.112186        84.6869 
 103   0.0000       3.155406        85.8630 
 104   0.0000       3.201944        87.1293 
 105   0.0000       3.223834        87.7250 
 106   0.0000       3.269187        88.9591 
 107   0.0000       3.293190        89.6123 
 108   0.0000       3.349871        91.1546 
 109   0.0000       3.368413        91.6592 
 110   0.0000       3.438362        93.5626 
 111   0.0000       3.440981        93.6338 
 112   0.0000       3.463065        94.2348 
 113   0.0000       3.521286        95.8191 
 114   0.0000       3.525006        95.9203 
 115   0.0000       3.549674        96.5915 
 116   0.0000       3.567752        97.0835 
 117   0.0000       3.576779        97.3291 
 118   0.0000       3.628515        98.7369 
 119   0.0000       3.646348        99.2222 
 120   0.0000       3.649497        99.3079 
 121   0.0000       3.697932       100.6259 
 122   0.0000       3.735316       101.6431 
 123   0.0000       3.741273       101.8052 
 124   0.0000       3.826510       104.1246 
 125   0.0000       3.868503       105.2673 
 126   0.0000       3.971392       108.0671 
 127   0.0000       3.976348       108.2019 
 128   0.0000       4.044100       110.0455 
 129   0.0000       4.049674       110.1972 
 130   0.0000       4.079238       111.0017 
 131   0.0000       4.117357       112.0390 
 132   0.0000       4.170864       113.4950 
 133   0.0000       4.194000       114.1245 
 134   0.0000       4.241465       115.4161 
 135   0.0000       4.295509       116.8867 
 136   0.0000       4.327926       117.7689 
 137   0.0000       4.362861       118.7195 
 138   0.0000       4.366337       118.8141 
 139   0.0000       4.396856       119.6445 
 140   0.0000       4.439496       120.8048 
 141   0.0000       4.464266       121.4789 
 142   0.0000       4.480662       121.9250 
 143   0.0000       4.520143       122.9993 
 144   0.0000       4.553196       123.8988 
 145   0.0000       4.595481       125.0494 
 146   0.0000       4.659568       126.7933 
 147   0.0000       4.666695       126.9872 
 148   0.0000       4.840645       131.7206 
 149   0.0000       4.851083       132.0047 
 150   0.0000       5.012825       136.4059 
 151   0.0000       5.106812       138.9634 
 152   0.0000       5.126461       139.4981 
 153   0.0000       5.189797       141.2216 
 154   0.0000       5.249239       142.8390 
 155   0.0000       5.260402       143.1428 
 156   0.0000       5.393076       146.7531 
 157   0.0000       5.445746       148.1863 
 158   0.0000       5.478409       149.0751 
 159   0.0000       5.507407       149.8642 
 160   0.0000       5.558182       151.2458 
 161   0.0000       5.579088       151.8147 
 162   0.0000       5.662423       154.0824 
 163   0.0000       5.715539       155.5277 
 164   0.0000       5.842172       158.9736 
 165   0.0000       5.858662       159.4223 
 166   0.0000       5.907743       160.7579 
 167   0.0000       5.989313       162.9775 
 168   0.0000       6.080820       165.4675 
 169   0.0000       6.227754       169.4658 
 170   0.0000       6.251991       170.1253 
 171   0.0000       6.411528       174.4666 
 172   0.0000       6.912464       188.0977 
 173   0.0000       6.916723       188.2136 
 174   0.0000      24.277971       660.6372 
 175   0.0000      33.648335       915.6178 

                 SPIN DOWN ORBITALS
  NO   OCC          E(Eh)            E(eV) 
   0   1.0000     -15.109958      -411.1629 
   1   1.0000     -10.876769      -295.9719 
   2   1.0000      -1.071702       -29.1625 
   3   1.0000      -0.820151       -22.3174 
   4   1.0000      -0.614635       -16.7251 
   5   1.0000      -0.554749       -15.0955 
   6   1.0000      -0.515790       -14.0353 
   7   1.0000      -0.474591       -12.9143 
   8   1.0000      -0.346803        -9.4370 
   9   0.0000       0.031502         0.8572 
  10   0.0000       0.063245         1.7210 
  11   0.0000       0.083072         2.2605 
  12   0.0000       0.105694         2.8761 
  13   0.0000       0.128493         3.4965 
  14   0.0000       0.142089         3.8664 
  15   0.0000       0.148021         4.0278 
  16   0.0000       0.171518         4.6672 
  17   0.0000       0.173470         4.7204 
  18   0.0000       0.214718         5.8428 
  19   0.0000       0.221070         6.0156 
  20   0.0000       0.223247         6.0749 
  21   0.0000       0.255378         6.9492 
  22   0.0000       0.255885         6.9630 
  23   0.0000       0.257300         7.0015 
  24   0.0000       0.277086         7.5399 
  25   0.0000       0.301598         8.2069 
  26   0.0000       0.304313         8.2808 
  27   0.0000       0.336995         9.1701 
  28   0.0000       0.337391         9.1809 
  29   0.0000       0.347461         9.4549 
  30   0.0000       0.357373         9.7246 
  31   0.0000       0.362934         9.8759 
  32   0.0000       0.364219         9.9109 
  33   0.0000       0.375379        10.2146 
  34   0.0000       0.386577        10.5193 
  35   0.0000       0.396363        10.7856 
  36   0.0000       0.434631        11.8269 
  37   0.0000       0.438151        11.9227 
  38   0.0000       0.446206        12.1419 
  39   0.0000       0.451481        12.2854 
  40   0.0000       0.474843        12.9211 
  41   0.0000       0.488151        13.2833 
  42   0.0000       0.530932        14.4474 
  43   0.0000       0.556009        15.1298 
  44   0.0000       0.576624        15.6907 
  45   0.0000       0.579289        15.7633 
  46   0.0000       0.625723        17.0268 
  47   0.0000       0.665395        18.1063 
  48   0.0000       0.668423        18.1887 
  49   0.0000       0.677193        18.4273 
  50   0.0000       0.721112        19.6224 
  51   0.0000       0.783501        21.3201 
  52   0.0000       0.794480        21.6189 
  53   0.0000       0.798767        21.7355 
  54   0.0000       0.822896        22.3921 
  55   0.0000       0.834377        22.7046 
  56   0.0000       0.886845        24.1323 
  57   0.0000       0.929407        25.2905 
  58   0.0000       0.975790        26.5526 
  59   0.0000       0.982827        26.7441 
  60   0.0000       1.004985        27.3470 
  61   0.0000       1.036476        28.2040 
  62   0.0000       1.055741        28.7282 
  63   0.0000       1.115962        30.3669 
  64   0.0000       1.141413        31.0594 
  65   0.0000       1.143381        31.1130 
  66   0.0000       1.207815        32.8663 
  67   0.0000       1.226493        33.3746 
  68   0.0000       1.231457        33.5097 
  69   0.0000       1.274275        34.6748 
  70   0.0000       1.301700        35.4211 
  71   0.0000       1.308373        35.6026 
  72   0.0000       1.372550        37.3490 
  73   0.0000       1.392936        37.9037 
  74   0.0000       1.402307        38.1587 
  75   0.0000       1.453829        39.5607 
  76   0.0000       1.495058        40.6826 
  77   0.0000       1.524982        41.4969 
  78   0.0000       1.577178        42.9172 
  79   0.0000       1.612723        43.8844 
  80   0.0000       1.639927        44.6247 
  81   0.0000       1.733856        47.1806 
  82   0.0000       1.745748        47.5042 
  83   0.0000       1.854181        50.4548 
  84   0.0000       1.857470        50.5443 
  85   0.0000       1.901701        51.7479 
  86   0.0000       1.955931        53.2236 
  87   0.0000       2.006655        54.6039 
  88   0.0000       2.009729        54.6875 
  89   0.0000       2.250007        61.2258 
  90   0.0000       2.342719        63.7486 
  91   0.0000       2.483654        67.5837 
  92   0.0000       2.626703        71.4762 
  93   0.0000       2.768271        75.3285 
  94   0.0000       2.852860        77.6303 
  95   0.0000       2.864241        77.9400 
  96   0.0000       2.896528        78.8185 
  97   0.0000       2.909349        79.1674 
  98   0.0000       2.918941        79.4284 
  99   0.0000       3.027293        82.3768 
 100   0.0000       3.050303        83.0030 
 101   0.0000       3.109110        84.6032 
 102   0.0000       3.113727        84.7288 
 103   0.0000       3.162086        86.0447 
 104   0.0000       3.202606        87.1473 
 105   0.0000       3.230525        87.9070 
 106   0.0000       3.276310        89.1529 
 107   0.0000       3.296009        89.6890 
 108   0.0000       3.354107        91.2699 
 109   0.0000       3.381255        92.0086 
 110   0.0000       3.455059        94.0169 
 111   0.0000       3.495626        95.1208 
 112   0.0000       3.498809        95.2074 
 113   0.0000       3.533521        96.1520 
 114   0.0000       3.542134        96.3864 
 115   0.0000       3.551602        96.6440 
 116   0.0000       3.581745        97.4642 
 117   0.0000       3.606219        98.1302 
 118   0.0000       3.635441        98.9254 
 119   0.0000       3.660771        99.6146 
 120   0.0000       3.665169        99.7343 
 121   0.0000       3.712488       101.0219 
 122   0.0000       3.743632       101.8694 
 123   0.0000       3.747416       101.9724 
 124   0.0000       3.827559       104.1532 
 125   0.0000       3.869341       105.2901 
 126   0.0000       3.973484       108.1240 
 127   0.0000       3.978433       108.2587 
 128   0.0000       4.060098       110.4809 
 129   0.0000       4.114967       111.9739 
 130   0.0000       4.129448       112.3680 
 131   0.0000       4.141617       112.6991 
 132   0.0000       4.174189       113.5854 
 133   0.0000       4.209258       114.5397 
 134   0.0000       4.247966       115.5930 
 135   0.0000       4.302413       117.0746 
 136   0.0000       4.335041       117.9625 
 137   0.0000       4.365956       118.8037 
 138   0.0000       4.367881       118.8561 
 139   0.0000       4.400214       119.7359 
 140   0.0000       4.446628       120.9989 
 141   0.0000       4.480973       121.9335 
 142   0.0000       4.495919       122.3402 
 143   0.0000       4.525854       123.1548 
 144   0.0000       4.553797       123.9151 
 145   0.0000       4.599810       125.1672 
 146   0.0000       4.660632       126.8222 
 147   0.0000       4.667856       127.0188 
 148   0.0000       4.843420       131.7962 
 149   0.0000       4.856323       132.1473 
 150   0.0000       5.016442       136.5043 
 151   0.0000       5.107101       138.9713 
 152   0.0000       5.129006       139.5674 
 153   0.0000       5.195489       141.3765 
 154   0.0000       5.252336       142.9233 
 155   0.0000       5.265670       143.2862 
 156   0.0000       5.393913       146.7758 
 157   0.0000       5.446697       148.2122 
 158   0.0000       5.483321       149.2087 
 159   0.0000       5.509613       149.9242 
 160   0.0000       5.559345       151.2775 
 161   0.0000       5.579563       151.8276 
 162   0.0000       5.667984       154.2337 
 163   0.0000       5.717063       155.5692 
 164   0.0000       5.843688       159.0148 
 165   0.0000       5.858915       159.4292 
 166   0.0000       5.910245       160.8259 
 167   0.0000       5.991407       163.0345 
 168   0.0000       6.083041       165.5280 
 169   0.0000       6.232375       169.5915 
 170   0.0000       6.254916       170.2049 
 171   0.0000       6.414902       174.5583 
 172   0.0000       6.914895       188.1639 
 173   0.0000       6.918518       188.2625 
 174   0.0000      24.277829       660.6333 
 175   0.0000      33.653269       915.7520 

                    ********************************
                    * MULLIKEN POPULATION ANALYSIS *
                    ********************************

--------------------------------------------
MULLIKEN ATOMIC CHARGES AND SPIN POPULATIONS
--------------------------------------------
   0 H :    0.072597    0.009459
   1 H :    0.070208   -0.005985
   2 C :   -0.083108    0.001790
   3 H :    0.136250   -0.015680
   4 H :    0.068741   -0.004035
   5 H :   -0.044122    0.937308
   6 H :    0.137961   -0.016429
   7 N :   -0.358526    0.093572
Sum of atomic charges         :    0.0000000
Sum of atomic spin populations:    1.0000000

-----------------------------------------------------
MULLIKEN REDUCED ORBITAL CHARGES AND SPIN POPULATIONS
-----------------------------------------------------
CHARGE
  0 H s       :     0.886414  s :     0.886414
      pz      :     0.017214  p :     0.039020
      px      :     0.007112
      py      :     0.014694
      dz2     :     0.000584  d :     0.001969
      dxz     :     0.000132
      dyz     :     0.000435
      dx2y2   :     0.000310
      dxy     :     0.000508
  1 H s       :     0.891721  s :     0.891721
      pz      :     0.012487  p :     0.036062
      px      :     0.013833
      py      :     0.009742
      dz2     :     0.000322  d :     0.002010
      dxz     :     0.000419
      dyz     :     0.000285
      dx2y2   :     0.000581
      dxy     :     0.000403
  2 C s       :     3.117036  s :     3.117036
      pz      :     0.750591  p :     2.855644
      px      :     1.079357
      py      :     1.025696
      dz2     :     0.018696  d :     0.103628
      dxz     :     0.006260
      dyz     :     0.042870
      dx2y2   :     0.011773
      dxy     :     0.024030
      f0      :     0.002384  f :     0.006800
      f+1     :     0.001067
      f-1     :     0.002064
      f+2     :     0.000375
      f-2     :     0.000212
      f+3     :     0.000017
      f-3     :     0.000681
  3 H s       :     0.781412  s :     0.781412
      pz      :     0.017771  p :     0.077521
      px      :     0.022158
      py      :     0.037592
      dz2     :     0.000604  d :     0.004817
      dxz     :     0.001156
      dyz     :     0.000346
      dx2y2   :     0.001277
      dxy     :     0.001434
  4 H s       :     0.894897  s :     0.894897
      pz      :     0.012114  p :     0.034354
      px      :     0.014552
      py      :     0.007688
      dz2     :     0.000330  d :     0.002009
      dxz     :     0.000478
      dyz     :     0.000223
      dx2y2   :     0.000537
      dxy     :     0.000441
  5 H s       :     1.022549  s :     1.022549
      pz      :     0.004083  p :     0.021322
      px      :     0.000457
      py      :     0.016782
      dz2     :     0.000016  d :     0.000251
      dxz     :     0.000002
      dyz     :     0.000114
      dx2y2   :     0.000105
      dxy     :     0.000014
  6 H s       :     0.779248  s :     0.779248
      pz      :     0.017577  p :     0.077960
      px      :     0.021628
      py      :     0.038754
      dz2     :     0.000602  d :     0.004831
      dxz     :     0.001085
      dyz     :     0.000407
      dx2y2   :     0.001361
      dxy     :     0.001375
  7 N s       :     3.495570  s :     3.495570
      pz      :     1.166485  p :     3.833808
      px      :     1.120180
      py      :     1.547144
      dz2     :     0.012200  d :     0.027306
      dxz     :     0.000135
      dyz     :     0.006032
      dx2y2   :     0.001229
      dxy     :     0.007710
      f0      :     0.000743  f :     0.001842
      f+1     :     0.000304
      f-1     :     0.000370
      f+2     :     0.000040
      f-2     :     0.000114
      f+3     :     0.000012
      f-3     :     0.000260

SPIN
  0 H s       :     0.009342  s :     0.009342
      pz      :    -0.000252  p :     0.000113
      px      :     0.000300
      py      :     0.000065
      dz2     :     0.000005  d :     0.000005
      dxz     :    -0.000001
      dyz     :    -0.000004
      dx2y2   :     0.000004
      dxy     :     0.000000
  1 H s       :    -0.005277  s :    -0.005277
      pz      :    -0.002808  p :    -0.000703
      px      :    -0.000206
      py      :     0.002311
      dz2     :    -0.000001  d :    -0.000005
      dxz     :    -0.000001
      dyz     :    -0.000001
      dx2y2   :    -0.000002
      dxy     :     0.000000
  2 C s       :     0.000197  s :     0.000197
      pz      :    -0.003037  p :     0.002957
      px      :    -0.000631
      py      :     0.006625
      dz2     :     0.002524  d :    -0.001495
      dxz     :    -0.000064
      dyz     :    -0.002323
      dx2y2   :    -0.001492
      dxy     :    -0.000141
      f0      :     0.000010  f :     0.000131
      f+1     :    -0.000005
      f-1     :     0.000112
      f+2     :     0.000016
      f-2     :    -0.000001
      f+3     :     0.000000
      f-3     :    -0.000000
  3 H s       :    -0.009632  s :    -0.009632
      pz      :    -0.000838  p :    -0.006193
      px      :    -0.000698
      py      :    -0.004656
      dz2     :     0.000025  d :     0.000145
      dxz     :     0.000017
      dyz     :    -0.000002
      dx2y2   :     0.000001
      dxy     :     0.000104
  4 H s       :    -0.003209  s :    -0.003209
      pz      :    -0.002331  p :    -0.000822
      px      :    -0.000119
      py      :     0.001629
      dz2     :    -0.000001  d :    -0.000004
      dxz     :    -0.000001
      dyz     :    -0.000001
      dx2y2   :    -0.000002
      dxy     :     0.000002
  5 H s       :     0.919232  s :     0.919232
      pz      :     0.003775  p :     0.018075
      px      :     0.000081
      py      :     0.014219
      dz2     :     0.000000  d :     0.000001
      dxz     :     0.000000
      dyz     :     0.000001
      dx2y2   :    -0.000001
      dxy     :     0.000000
  6 H s       :    -0.010543  s :    -0.010543
      pz      :    -0.000831  p :    -0.006022
      px      :    -0.000858
      py      :    -0.004333
      dz2     :     0.000024  d :     0.000135
      dxz     :     0.000017
      dyz     :    -0.000006
      dx2y2   :     0.000014
      dxy     :     0.000086
  7 N s       :     0.043754  s :     0.043754
      pz      :     0.011674  p :     0.047487
      px      :     0.005225
      py      :     0.030588
      dz2     :     0.000526  d :     0.002374
      dxz     :    -0.000471
      dyz     :     0.001592
      dx2y2   :     0.000901
      dxy     :    -0.000175
      f0      :    -0.000018  f :    -0.000043
      f+1     :    -0.000001
      f-1     :    -0.000005
      f+2     :     0.000021
      f-2     :    -0.000019
      f+3     :    -0.000002
      f-3     :    -0.000019


                     *******************************
                     * LOEWDIN POPULATION ANALYSIS *
                     *******************************

-------------------------------------------
LOEWDIN ATOMIC CHARGES AND SPIN POPULATIONS
-------------------------------------------
   0 H :   -0.018281    0.002972
   1 H :   -0.016149    0.004194
   2 C :    0.046873    0.011503
   3 H :   -0.104188    0.009490
   4 H :   -0.015197    0.003300
   5 H :    0.037201    0.782433
   6 H :   -0.103230    0.008854
   7 N :    0.172971    0.177254

----------------------------------------------------
LOEWDIN REDUCED ORBITAL CHARGES AND SPIN POPULATIONS
----------------------------------------------------
CHARGE
  0 H s       :     0.726242  s :     0.726242
      pz      :     0.071253  p :     0.265020
      px      :     0.075268
      py      :     0.118499
      dz2     :     0.005068  d :     0.027018
      dxz     :     0.001981
      dyz     :     0.007621
      dx2y2   :     0.005113
      dxy     :     0.007235
  1 H s       :     0.718426  s :     0.718426
      pz      :     0.061354  p :     0.269855
      px      :     0.111448
      py      :     0.097053
      dz2     :     0.003501  d :     0.027867
      dxz     :     0.005120
      dyz     :     0.003285
      dx2y2   :     0.008715
      dxy     :     0.007246
  2 C s       :     2.659234  s :     2.659234
      pz      :     0.790884  p :     2.645257
      px      :     0.932276
      py      :     0.922097
      dz2     :     0.161797  d :     0.602921
      dxz     :     0.117301
      dyz     :     0.211410
      dx2y2   :     0.042057
      dxy     :     0.070355
      f0      :     0.013069  f :     0.045715
      f+1     :     0.008745
      f-1     :     0.010578
      f+2     :     0.004868
      f-2     :     0.003292
      f+3     :     0.000323
      f-3     :     0.004841
  3 H s       :     0.656705  s :     0.656705
      pz      :     0.099309  p :     0.389308
      px      :     0.137923
      py      :     0.152076
      dz2     :     0.008207  d :     0.058175
      dxz     :     0.013290
      dyz     :     0.004658
      dx2y2   :     0.014575
      dxy     :     0.017444
  4 H s       :     0.718429  s :     0.718429
      pz      :     0.061123  p :     0.268894
      px      :     0.116690
      py      :     0.091082
      dz2     :     0.003552  d :     0.027874
      dxz     :     0.005911
      dyz     :     0.002543
      dx2y2   :     0.008270
      dxy     :     0.007598
  5 H s       :     0.853124  s :     0.853124
      pz      :     0.024220  p :     0.108148
      px      :     0.004659
      py      :     0.079268
      dz2     :     0.000076  d :     0.001527
      dxz     :     0.000011
      dyz     :     0.000736
      dx2y2   :     0.000675
      dxy     :     0.000028
  6 H s       :     0.656634  s :     0.656634
      pz      :     0.098808  p :     0.388439
      px      :     0.133341
      py      :     0.156289
      dz2     :     0.008098  d :     0.058157
      dxz     :     0.012543
      dyz     :     0.005354
      dx2y2   :     0.015689
      dxy     :     0.016474
  7 N s       :     2.903580  s :     2.903580
      pz      :     1.081502  p :     3.449400
      px      :     1.073485
      py      :     1.294413
      dz2     :     0.113996  d :     0.463384
      dxz     :     0.125368
      dyz     :     0.135931
      dx2y2   :     0.040666
      dxy     :     0.047423
      f0      :     0.002707  f :     0.010666
      f+1     :     0.002175
      f-1     :     0.001849
      f+2     :     0.000593
      f-2     :     0.001491
      f+3     :     0.000193
      f-3     :     0.001659

SPIN
  0 H s       :     0.001095  s :     0.001095
      pz      :     0.001691  p :     0.001857
      px      :    -0.000002
      py      :     0.000168
      dz2     :     0.000029  d :     0.000020
      dxz     :    -0.000002
      dyz     :    -0.000018
      dx2y2   :     0.000013
      dxy     :    -0.000002
  1 H s       :     0.000484  s :     0.000484
      pz      :     0.001658  p :     0.003779
      px      :     0.000002
      py      :     0.002120
      dz2     :    -0.000009  d :    -0.000069
      dxz     :    -0.000023
      dyz     :    -0.000017
      dx2y2   :    -0.000022
      dxy     :     0.000002
  2 C s       :     0.004208  s :     0.004208
      pz      :    -0.000670  p :    -0.000818
      px      :    -0.000318
      py      :     0.000170
      dz2     :     0.002461  d :     0.006882
      dxz     :    -0.000230
      dyz     :     0.003569
      dx2y2   :     0.001084
      dxy     :    -0.000002
      f0      :     0.000442  f :     0.001231
      f+1     :     0.000046
      f-1     :     0.000656
      f+2     :     0.000087
      f-2     :     0.000001
      f+3     :     0.000000
      f-3     :    -0.000001
  3 H s       :    -0.000871  s :    -0.000871
      pz      :     0.001164  p :     0.007913
      px      :     0.000845
      py      :     0.005904
      dz2     :     0.000420  d :     0.002448
      dxz     :     0.000294
      dyz     :     0.000060
      dx2y2   :     0.000235
      dxy     :     0.001440
  4 H s       :     0.000396  s :     0.000396
      pz      :     0.001251  p :     0.002971
      px      :     0.000026
      py      :     0.001693
      dz2     :    -0.000009  d :    -0.000066
      dxz     :    -0.000026
      dyz     :    -0.000010
      dx2y2   :    -0.000024
      dxy     :     0.000003
  5 H s       :     0.738091  s :     0.738091
      pz      :     0.010482  p :     0.044056
      px      :    -0.000017
      py      :     0.033592
      dz2     :     0.000007  d :     0.000286
      dxz     :    -0.000000
      dyz     :     0.000146
      dx2y2   :     0.000135
      dxy     :    -0.000001
  6 H s       :    -0.001015  s :    -0.001015
      pz      :     0.001100  p :     0.007428
      px      :     0.000497
      py      :     0.005830
      dz2     :     0.000419  d :     0.002441
      dxz     :     0.000317
      dyz     :     0.000041
      dx2y2   :     0.000432
      dxy     :     0.001233
  7 N s       :     0.034451  s :     0.034451
      pz      :     0.018674  p :     0.086711
      px      :     0.004172
      py      :     0.063865
      dz2     :     0.003649  d :     0.056050
      dxz     :    -0.000385
      dyz     :     0.025180
      dx2y2   :     0.028195
      dxy     :    -0.000590
      f0      :     0.000051  f :     0.000042
      f+1     :    -0.000006
      f-1     :     0.000002
      f+2     :     0.000024
      f-2     :    -0.000032
      f+3     :     0.000007
      f-3     :    -0.000003


                      *****************************
                      * MAYER POPULATION ANALYSIS *
                      *****************************

  NA   - Mulliken gross atomic population
  ZA   - Total nuclear charge
  QA   - Mulliken gross atomic charge
  VA   - Mayer's total valence
  BVA  - Mayer's bonded valence
  FA   - Mayer's free valence

  ATOM       NA         ZA         QA         VA         BVA        FA
  0 H      0.9274     1.0000     0.0726     1.0445     1.0445    -0.0000
  1 H      0.9298     1.0000     0.0702     1.0380     1.0380     0.0000
  2 C      6.0831     6.0000    -0.0831     3.8977     3.8973     0.0005
  3 H      0.8638     1.0000     0.1362     1.0276     1.0276     0.0000
  4 H      0.9313     1.0000     0.0687     1.0341     1.0341     0.0000
  5 H      1.0441     1.0000    -0.0441     1.0141     0.1385     0.8756
  6 H      0.8620     1.0000     0.1380     1.0265     1.0265     0.0000
  7 N      7.3585     7.0000    -0.3585     3.1739     3.1154     0.0585

  Mayer bond orders larger than 0.100000
B(  0-H ,  2-C ) :   1.0268 B(  1-H ,  2-C ) :   1.0170 B(  2-C ,  4-H ) :   1.0147 
B(  2-C ,  7-N ) :   0.8221 B(  3-H ,  7-N ) :   1.0415 B(  5-H ,  7-N ) :   0.1863 
B(  6-H ,  7-N ) :   1.0416 

-------
TIMINGS
-------

Total SCF time: 0 days 0 hours 0 min 2 sec 

Total time                  ....       2.553 sec
Sum of individual times     ....       2.398 sec  ( 93.9%)

Fock matrix formation       ....       1.973 sec  ( 77.3%)
  XC integration            ....       0.498 sec  ( 25.3% of F)
    Basis function eval.    ....       0.064 sec  ( 12.8% of XC)
    Density eval.           ....       0.085 sec  ( 17.0% of XC)
    XC-Functional eval.     ....       0.022 sec  (  4.4% of XC)
    XC-Potential eval.      ....       0.184 sec  ( 36.9% of XC)
Diagonalization             ....       0.099 sec  (  3.9%)
Density matrix formation    ....       0.016 sec  (  0.6%)
Population analysis         ....       0.012 sec  (  0.5%)
Initial guess               ....       0.102 sec  (  4.0%)
Orbital Transformation      ....       0.000 sec  (  0.0%)
Orbital Orthonormalization  ....       0.000 sec  (  0.0%)
DIIS solution               ....       0.034 sec  (  1.3%)
Grid generation             ....       0.161 sec  (  6.3%)


           ************************************************************
           *        Program running with 24 parallel MPI-processes    *
           *              working on a common directory               *
           ************************************************************

------------------------------------------------------------------------------
                                ORCA  MP2 
------------------------------------------------------------------------------

Freezing NCore=4 chemical core electrons

-------------
RI-MP2 ENERGY
-------------
Dimension of the basis                    ...  176
Memory devoted to MP2                     ... 5000 MB   
Data format for buffers                   ... DOUBLE
Compression type for matrix containers    ... UNCOMPRESSED
Scaling for aa/bb pairs                   ...   4.000e-01
Scaling for ab pairs                      ...   4.700e-01
Overall scaling of the MP2 energy         ...   1.000e+00
Calculating two index integrals           ... done (    0.002 sec)
Cholesky decomposition of V**-1           ... done (    0.021 sec)

-----------------
RI-TRANSFORMATION (AUX index driven)
-----------------

Dimension of the orbital-basis         ... 176
Dimension of the aux-basis             ... 418
Transformation of internal/external MOs...    2-   9 to   10- 175
Number Format for Storage              ... Double (8 Byte)
Integral mode                          ... Direct

First Phase: integral generation and transformation of MO indices
  Aux angular momentum 0               ... done (    0.002 sec)
  Aux angular momentum 1               ... done (    0.003 sec)
  Aux angular momentum 2               ... done (    0.004 sec)
  Aux angular momentum 3               ... done (    0.003 sec)
  Aux angular momentum 4               ... done (    0.004 sec)
Closing buffer VIA ( 0.00 GB; CompressionRatio= 1.00)
  Phase 1 completed in     0.103 sec
Second Phase: sorting and transformation of aux index

IA-Transformation
Memory available                       ... 4996 MB 
Max. # MO pairs treated in a batch     ... 1    
# of internal orbitals                 ... 8
# batches for internal orbitals        ... 1
Closing buffer IAV ( 0.00 GB; CompressionRatio= 1.00)
(ia|v) transformation done in     0.005 sec

  Phase 2 completed in     0.010 sec
RI-Integral transformation completed in     0.114 sec

-----------------
RI-TRANSFORMATION (AUX index driven)
-----------------

Dimension of the orbital-basis         ... 176
Dimension of the aux-basis             ... 418
Transformation of internal/external MOs...    2-   8 to    9- 175
Number Format for Storage              ... Double (8 Byte)
Integral mode                          ... Direct

First Phase: integral generation and transformation of MO indices
  Aux angular momentum 0               ... done (    0.002 sec)
  Aux angular momentum 1               ... done (    0.003 sec)
  Aux angular momentum 2               ... done (    0.004 sec)
  Aux angular momentum 3               ... done (    0.003 sec)
  Aux angular momentum 4               ... done (    0.004 sec)
Closing buffer VIA ( 0.00 GB; CompressionRatio= 1.00)
  Phase 1 completed in     0.087 sec
Second Phase: sorting and transformation of aux index

IA-Transformation
Memory available                       ... 4996 MB 
Max. # MO pairs treated in a batch     ... 1    
# of internal orbitals                 ... 7
# batches for internal orbitals        ... 1
Closing buffer IAV ( 0.00 GB; CompressionRatio= 1.00)
(ia|v) transformation done in     0.004 sec

  Phase 2 completed in     0.010 sec
RI-Integral transformation completed in     0.097 sec
Opening buffers                              ... done

Starting loop over batches of integrals:

Operator 0  - window                       ... (  2-  9)x( 10-175)
Operator 0  - Memory available             ...  5000 MB
Operator 0  - Memory needed per MO         ...   0.5 MB
Operator 0  - Number of orbitals per batch ... 1
Operator 0  - Number of batches            ... 1

OPERATOR  0   PASS   0:  MOs     2 ...    2 +    3 ...    3 +    4 ...    4 +    5 ...    5
                            +    6 ...    6 +    7 ...    7 +    8 ...    8 +    9 ...    9
  Reading integrals       ... ok

Operator 1  - window                       ... (  2-  8)x(  9-175)
Operator 1  - Memory available             ...  5000 MB
Operator 1  - Memory needed per MO         ...   0.5 MB
Operator 1  - Number of orbitals per batch ... 1
Operator 1  - Number of batches            ... 1

OPERATOR  1   PASS   0:  MOs     2 ...    2 +    3 ...    3 +    4 ...    4 +    5 ...    5
                            +    6 ...    6 +    7 ...    7 +    8 ...    8
  Reading integrals       ... ok
Time spent in pair loops =     0.014 sec
Deleting buffer (Ka|jb)[aa] ...done
Deleting buffer (Ka|jb)[ab] ...done
Deleting buffer (Ka|jb)[ba] ...done
Deleting buffer (Ka|jb)[bb] ...done

Spin-scaled correlation energy components}
 E2 and T2 for alpha/alpha pairs :     -0.020615925 Eh      0.000000000
 E2 and T2 for beta/beta   pairs :     -0.020136439 Eh      0.000000000
 E2 and T2 for alpha/beta  pairs :     -0.168027943 Eh      0.000000000


-----------------------------------------------
 RI-MP2 CORRELATION ENERGY:     -0.208780307 Eh
-----------------------------------------------


-------
TIMINGS
-------

Total time                :    0.283 sec
Integral trafo            :    0.240 sec ( 84.8%)
I/O of integrals          :    0.001 sec (  0.3%)
K(i,j) Operators          :    0.006 sec (  2.2%)
T(i,j) pair energies      :    0.001 sec (  0.2%)
V-calculation             :    0.002 sec (  0.8%)
V**(-1/2)                 :    0.021 sec (  7.3%)
Gamma(ia|P)               :    0.000 sec (  0.0%)
Gamma-Trafo               :    0.000 sec (  0.0%)
D(virtual)                :    0.000 sec (  0.0%)
D(internal)               :    0.000 sec (  0.0%)
W(virtual)                :    0.000 sec (  0.0%)
W(internal)               :    0.000 sec (  0.0%)
L(virtual)                :    0.000 sec (  0.0%)
L(internal)               :    0.000 sec (  0.0%)
G(D)                      :    0.000 sec (  0.0%)
G(Z)                      :    0.000 sec (  0.0%)
Z-Vector Solution         :    0.000 sec (  0.0%)
Z-Vector Solution         :    0.000 sec (  0.0%)
3-Index Derivative 
+ Separable RIJ part      :    0.000 sec (  0.0%)
2-Index Derivative 
+ Separable RIJ part      :    0.000 sec (  0.0%)
Separable Gradient (X)    :    0.000 sec (  0.0%)


---------------------------------------
MP2 TOTAL ENERGY:      -96.271829795 Eh
---------------------------------------


-------------------------------------------------------------------------------
                          DFT DISPERSION CORRECTION                            
                                                                               
                              DFTD3 V3.1  Rev 1                                
                          USING Becke-Johnson damping                          
-------------------------------------------------------------------------------
The DSD-BLYP/2013 functional is recognized
Active option DFTDOPT                   ...         4   

molecular C6(AA) [au] = 386.174205 


            DFT-D V3
 parameters
 s6 scaling factor         :     0.5700 
 a1 scaling factor         :     0.0000 
 s8 scaling factor         :     0.0000 
 a2 scaling factor         :     5.4000 
 ad hoc parameters k1-k3   :    16.0000     1.3333    -4.0000 

 Edisp/kcal,au: -1.900013190601  -0.003027863429 
 E6   /kcal   :  -1.900013191 
 E8   /kcal   :  -0.000000000 
 % E8         :   0.000000000 

-------------------------   ----------------
Dispersion correction           -0.003027863
-------------------------   ----------------


-------------------------   --------------------
FINAL SINGLE POINT ENERGY       -96.274857658696
-------------------------   --------------------


                            ***************************************
                            *     ORCA property calculations      *
                            ***************************************


  WARNING: The energy has been calculated at the MP2 level but the densities
           used in the property calculations are still SCF densities
           MP2 response densities have not been calculated 
           use %mp2 Density relaxed end
           or  %mp2 Density unrelaxed end

                                    ---------------------
                                    Active property flags
                                    ---------------------
   (+) Dipole Moment


------------------------------------------------------------------------------
                       ORCA ELECTRIC PROPERTIES CALCULATION
------------------------------------------------------------------------------

Dipole Moment Calculation                       ... on
Quadrupole Moment Calculation                   ... off
Polarizability Calculation                      ... off
GBWName                                         ... 123.gbw
Electron density file                           ... 123.scfp
The origin for moment calculation is the CENTER OF MASS  = ( 0.001931, -0.194470 -0.006678)

-------------
DIPOLE MOMENT
-------------
                                X             Y             Z
Electronic contribution:     -0.00835      -1.61206       0.45723
Nuclear contribution   :     -0.00825       0.82489      -0.08847
                        -----------------------------------------
Total Dipole Moment    :     -0.01661      -0.78718       0.36876
                        -----------------------------------------
Magnitude (a.u.)       :      0.86943
Magnitude (Debye)      :      2.20992



--------------------
Rotational spectrum 
--------------------
 
Rotational constants in cm-1:     2.000356     0.660608     0.601270 
Rotational constants in MHz : 59969.149740 19804.516397 18025.616086 

 Dipole components along the rotational axes: 
x,y,z [a.u.] :     0.368767    -0.787176     0.016603 
x,y,z [Debye]:     0.937332    -2.000843     0.042203 

 

Timings for individual modules:

Sum of individual times         ...        4.153 sec (=   0.069 min)
GTO integral calculation        ...        0.535 sec (=   0.009 min)  12.9 %
SCF iterations                  ...        2.896 sec (=   0.048 min)  69.7 %
MP2 module                      ...        0.722 sec (=   0.012 min)  17.4 %
                             ****ORCA TERMINATED NORMALLY****
TOTAL RUN TIME: 0 days 0 hours 0 minutes 4 seconds 637 msec
