
                                 *****************
                                 * O   R   C   A *
                                 *****************

           --- An Ab Initio, DFT and Semiempirical electronic structure package ---

                  #######################################################
                  #                        -***-                        #
                  #          Department of theory and spectroscopy      #
                  #               Directorship: Frank Neese             #
                  #        Max Planck Institute fuer Kohlenforschung    #
                  #                Kaiser Wilhelm Platz 1               #
                  #                 D-45470 Muelheim/Ruhr               #
                  #                      Germany                        #
                  #                                                     #
                  #                  All rights reserved                #
                  #                        -***-                        #
                  #######################################################


                         Program Version 4.2.0 -  RELEASE  -


 With contributions from (in alphabetic order):
   Daniel Aravena         : Magnetic Suceptibility
   Michael Atanasov       : Ab Initio Ligand Field Theory (pilot matlab implementation)
   Alexander A. Auer      : GIAO ZORA, VPT2
   Ute Becker             : Parallelization
   Giovanni Bistoni       : ED, misc. LED, open-shell LED, HFLED
   Martin Brehm           : Molecular dynamics
   Dmytro Bykov           : SCF Hessian
   Vijay G. Chilkuri      : MRCI spin determinant printing, contributions to CSF-ICE
   Dipayan Datta          : RHF DLPNO-CCSD density
   Achintya Kumar Dutta   : EOM-CC, STEOM-CC
   Dmitry Ganyushin       : Spin-Orbit,Spin-Spin,Magnetic field MRCI
   Miquel Garcia          : C-PCM Hessian, Gaussian charge scheme
   Yang Guo               : DLPNO-NEVPT2, CIM, IAO-localization
   Andreas Hansen         : Spin unrestricted coupled pair/coupled cluster methods
   Benjamin Helmich-Paris : CASSCF linear response (MC-RPA)
   Lee Huntington         : MR-EOM, pCC
   Robert Izsak           : Overlap fitted RIJCOSX, COSX-SCS-MP3, EOM
   Christian Kollmar      : KDIIS, OOCD, Brueckner-CCSD(T), CCSD density
   Simone Kossmann        : Meta GGA functionals, TD-DFT gradient, OOMP2, MP2 Hessian
   Martin Krupicka        : AUTO-CI
   Lucas Lang             : DCDCAS
   Dagmar Lenk            : GEPOL surface, SMD
   Dimitrios Liakos       : Extrapolation schemes; Compound Job, initial MDCI parallelization
   Dimitrios Manganas     : Further ROCIS development; embedding schemes
   Dimitrios Pantazis     : SARC Basis sets
   Taras Petrenko         : DFT Hessian,TD-DFT gradient, ASA, ECA, R-Raman, ABS, FL, XAS/XES, NRVS
   Peter Pinski           : DLPNO-MP2, DLPNO-MP2 Gradient
   Christoph Reimann      : Effective Core Potentials
   Marius Retegan         : Local ZFS, SOC
   Christoph Riplinger    : Optimizer, TS searches, QM/MM, DLPNO-CCSD(T), (RO)-DLPNO pert. Triples
   Tobias Risthaus        : Range-separated hybrids, TD-DFT gradient, RPA, STAB
   Michael Roemelt        : Original ROCIS implementation
   Masaaki Saitow         : Open-shell DLPNO-CCSD energy and density
   Barbara Sandhoefer     : DKH picture change effects
   Avijit Sen             : IP-ROCIS
   Kantharuban Sivalingam : CASSCF convergence, NEVPT2, FIC-MRCI
   Bernardo de Souza      : ESD, SOC TD-DFT
   Georgi Stoychev        : AutoAux, RI-MP2 NMR
   Willem Van den Heuvel  : Paramagnetic NMR
   Boris Wezisla          : Elementary symmetry handling
   Frank Wennmohs         : Technical directorship


 We gratefully acknowledge several colleagues who have allowed us to
 interface, adapt or use parts of their codes:
   Stefan Grimme, W. Hujo, H. Kruse,             : VdW corrections, initial TS optimization,
                  C. Bannwarth                     DFT functionals, gCP, sTDA/sTD-DF
   Ed Valeev, F. Pavosevic, A. Kumar             : LibInt (2-el integral package), F12 methods
   Garnet Chan, S. Sharma, J. Yang, R. Olivares  : DMRG
   Ulf Ekstrom                                   : XCFun DFT Library
   Mihaly Kallay                                 : mrcc  (arbitrary order and MRCC methods)
   Andreas Klamt, Michael Diedenhofen            : otool_cosmo (COSMO solvation model)
   Jiri Pittner, Ondrej Demel                    : Mk-CCSD
   Frank Weinhold                                : gennbo (NPA and NBO analysis)
   Christopher J. Cramer and Donald G. Truhlar   : smd solvation model
   Lars Goerigk                                  : TD-DFT with DH, B97 family of functionals
   V. Asgeirsson, H. Jonsson                     : NEB implementation
   FAccTs GmbH                                   : IRC, NEB, NEB-TS, Multilevel, MM, QM/MM, CI optimization
   S Lehtola, MJT Oliveira, MAL Marques          : LibXC Library


 Your calculation uses the libint2 library for the computation of 2-el integrals
 For citations please refer to: http://libint.valeyev.net

 Your ORCA version has been built with support for libXC version: 4.2.3
 For citations please refer to: https://tddft.org/programs/libxc/

 This ORCA versions uses:
   CBLAS   interface :  Fast vector & matrix operations
   LAPACKE interface :  Fast linear algebra routines
   SCALAPACK package :  Parallel linear algebra routines


Your calculation utilizes the atom-pairwise dispersion correction
with the Becke-Johnson damping scheme (D3BJ)
Cite in your paper:
S.Grimme, S.Ehrlich, L.Goerigk, J Comput Chem, (2011), 32, 1456–1465 
S.Grimme, J.Antony, S.Ehrlich and H.Krieg, J.Chem.Phys., 132, (2010), 154104 
   

----- Orbital basis set information -----
Your calculation utilizes the basis: def2-TZVPPD
   F. Weigend and R. Ahlrichs, Phys. Chem. Chem. Phys. 7, 3297 (2005).
   D. Rappoport and F. Furche, J. Chem. Phys. 133 134105 (2010).

----- AuxC basis set information -----
Your calculation utilizes the auxiliary basis: def2-TZVPPD/C
   A. Hellweg, C. Hattig, S. Hofener and W. Klopper, Theor. Chem. Acc. 117, 587 (2007).

----- AuxJK basis set information -----
Your calculation utilizes the auxiliary basis: def2/JK
   H-Ba, Hf-Rn: F. Weigend, J. Comput. Chem. 29, 167 (2008).

================================================================================
                                        WARNINGS
                       Please study these warnings very carefully!
================================================================================


WARNING: No MP2 level density has been requested!
         To caclulate MP2 level properties use
         %mp2 Density relaxed end
         or
         %mp2 Density unrelaxed end
         Otherwise for double-hybrid DFT only the energy is correct!

WARNING: There are different parametrizations of Gershom Martin's DSD-DFs
         for use with and without D3(BJ)!
         You are using the D3(BJ) parametrized version,
         consistent with the 2013 article (S. Kozuch and J. M. L. Martin, JCC 2013, 34, 2327)

WARNING: The frozen-core approximation is turned on by default for 
         the MP2 part of double-hybrid DFT.

INFO   : the flag for use of LIBINT has been found!

================================================================================
                                       INPUT FILE
================================================================================
NAME = 136.in
|  1> #
|  2> # 136 ri-DSD-BLYP/2013-D3BJ/Def2-TZVPPD
|  3> #
|  4> ! rijk ri-dsd-blyp/2013 d3bj def2-tzvppd def2/jk def2-tzvppd/c grid4 nofinalgrid
|  5> 
|  6> *xyz 0 1
|  7> H         -0.64763        2.95877       -0.31431
|  8> H         -0.38809        2.29902       -0.56811
|  9> H         -0.46982        0.02713        1.23682
| 10> H         -0.44619       -2.23309       -1.25807
| 11> H          1.15514       -0.83076        1.35211
| 12> O          0.58676       -0.20120       -0.67466
| 13> C          0.25357       -0.64235        0.76247
| 14> B         -0.04374       -1.37752       -0.53625
| 15> *
| 16> 
| 17> %maxcore 5000
| 18> 
| 19> %pal
| 20> nprocs = 24
| 21> end
| 22> 
| 23> 
| 24>                          ****END OF INPUT****
================================================================================

                       ****************************
                       * Single Point Calculation *
                       ****************************

---------------------------------
CARTESIAN COORDINATES (ANGSTROEM)
---------------------------------
  H     -0.647630    2.958770   -0.314310
  H     -0.388090    2.299020   -0.568110
  H     -0.469820    0.027130    1.236820
  H     -0.446190   -2.233090   -1.258070
  H      1.155140   -0.830760    1.352110
  O      0.586760   -0.201200   -0.674660
  C      0.253570   -0.642350    0.762470
  B     -0.043740   -1.377520   -0.536250

----------------------------
CARTESIAN COORDINATES (A.U.)
----------------------------
  NO LB      ZA    FRAG     MASS         X           Y           Z
   0 H     1.0000    0     1.008   -1.223843    5.591265   -0.593960
   1 H     1.0000    0     1.008   -0.733384    4.344518   -1.073572
   2 H     1.0000    0     1.008   -0.887831    0.051268    2.337251
   3 H     1.0000    0     1.008   -0.843177   -4.219929   -2.377408
   4 H     1.0000    0     1.008    2.182898   -1.569909    2.555118
   5 O     8.0000    0    15.999    1.108816   -0.380213   -1.274923
   6 C     6.0000    0    12.011    0.479178   -1.213866    1.440859
   7 B     5.0000    0    10.810   -0.082657   -2.603136   -1.013366

--------------------------------
INTERNAL COORDINATES (ANGSTROEM)
--------------------------------
 H      0   0   0     0.000000000000     0.00000000     0.00000000
 H      1   0   0     0.753024245360     0.00000000     0.00000000
 H      2   1   0     2.902746332338   117.80385754     0.00000000
 H      3   2   1     3.366545549580    93.69596783   156.63781283
 H      3   2   1     1.841130641155   112.25798081   231.04803546
 O      3   2   1     2.195962585223    61.74378454   188.22470225
 C      5   3   2     1.093618819608    32.68672483   284.84912840
 B      4   3   2     1.189533580779    21.53276110    68.34129435

---------------------------
INTERNAL COORDINATES (A.U.)
---------------------------
 H      0   0   0     0.000000000000     0.00000000     0.00000000
 H      1   0   0     1.423009595933     0.00000000     0.00000000
 H      2   1   0     5.485395604363   117.80385754     0.00000000
 H      3   2   1     6.361849106078    93.69596783   156.63781283
 H      3   2   1     3.479232688554   112.25798081   231.04803546
 O      3   2   1     4.149767886409    61.74378454   188.22470225
 C      5   3   2     2.066640063961    32.68672483   284.84912840
 B      4   3   2     2.247892694774    21.53276110    68.34129435

---------------------
BASIS SET INFORMATION
---------------------
There are 4 groups of distinct atoms

 Group   1 Type H   : 5s3p1d contracted to 3s3p1d pattern {311/111/1}
 Group   2 Type O   : 12s7p3d1f contracted to 6s4p3d1f pattern {621111/4111/111/1}
 Group   3 Type C   : 12s6p3d1f contracted to 6s3p3d1f pattern {621111/411/111/1}
 Group   4 Type B   : 12s6p3d1f contracted to 6s3p3d1f pattern {621111/411/111/1}

Atom   0H    basis set group =>   1
Atom   1H    basis set group =>   1
Atom   2H    basis set group =>   1
Atom   3H    basis set group =>   1
Atom   4H    basis set group =>   1
Atom   5O    basis set group =>   2
Atom   6C    basis set group =>   3
Atom   7B    basis set group =>   4
---------------------------------
AUXILIARY/C BASIS SET INFORMATION
---------------------------------
There are 4 groups of distinct atoms

 Group   1 Type H   : 5s4p3d1f contracted to 5s4p3d1f pattern {11111/1111/111/1}
 Group   2 Type O   : 9s7p6d4f1g contracted to 9s7p5d4f1g pattern {111111111/1111111/21111/1111/1}
 Group   3 Type C   : 9s7p6d4f1g contracted to 9s7p5d4f1g pattern {111111111/1111111/21111/1111/1}
 Group   4 Type B   : 9s7p6d4f1g contracted to 9s7p5d4f1g pattern {111111111/1111111/21111/1111/1}

Atom   0H    basis set group =>   1
Atom   1H    basis set group =>   1
Atom   2H    basis set group =>   1
Atom   3H    basis set group =>   1
Atom   4H    basis set group =>   1
Atom   5O    basis set group =>   2
Atom   6C    basis set group =>   3
Atom   7B    basis set group =>   4
----------------------------------
AUXILIARY/JK BASIS SET INFORMATION
----------------------------------
There are 4 groups of distinct atoms

 Group   1 Type H   : 4s2p2d contracted to 2s2p2d pattern {31/11/11}
 Group   2 Type O   : 14s10p6d2f1g contracted to 10s8p4d2f1g pattern {5111111111/31111111/3111/11/1}
 Group   3 Type C   : 14s10p6d2f1g contracted to 10s8p5d1f1g pattern {5111111111/31111111/21111/2/1}
 Group   4 Type B   : 14s10p6d2f1g contracted to 10s8p5d1f1g pattern {5111111111/31111111/21111/2/1}

Atom   0H    basis set group =>   1
Atom   1H    basis set group =>   1
Atom   2H    basis set group =>   1
Atom   3H    basis set group =>   1
Atom   4H    basis set group =>   1
Atom   5O    basis set group =>   2
Atom   6C    basis set group =>   3
Atom   7B    basis set group =>   4


           ************************************************************
           *        Program running with 24 parallel MPI-processes    *
           *              working on a common directory               *
           ************************************************************
------------------------------------------------------------------------------
                           ORCA GTO INTEGRAL CALCULATION
                           -- RI-GTO INTEGRALS CHOSEN --
------------------------------------------------------------------------------

                         BASIS SET STATISTICS AND STARTUP INFO

Gaussian basis set:
 # of primitive gaussian shells          ...  112
 # of primitive gaussian functions       ...  254
 # of contracted shells                  ...   75
 # of contracted basis functions         ...  199
 Highest angular momentum                ...    3
 Maximum contraction depth               ...    6
Auxiliary gaussian basis set:
 # of primitive gaussian shells          ...  139
 # of primitive gaussian functions       ...  391
 # of contracted shells                  ...  105
 # of contracted aux-basis functions     ...  317
 Highest angular momentum                ...    4
 Maximum contraction depth               ...    5
Ratio of auxiliary to basis functions    ...  1.59
Integral package used                  ... LIBINT
 One Electron integrals                  ... done
 Ordering auxiliary basis shells         ... done
 Integral threshhold             Thresh  ...  1.000e-10
 Primitive cut-off               TCut    ...  1.000e-11
 Pre-screening matrix                    ... done
 Shell pair data                         ... 
 Ordering of the shell pairs             ... done (   0.000 sec) 2776 of 2850 pairs
 Determination of significant pairs      ... done (   0.000 sec)
 Creation of shell pair data             ... done (   0.000 sec)
 Storage of shell pair data              ... done (   0.014 sec)
 Shell pair data done in (   0.015 sec)
 Computing two index integrals           ... done
 Cholesky decomposition of the V-matrix  ... done


Timings:
 Total evaluation time                   ...   0.180 sec (  0.003 min)
 One electron matrix time                ...   0.021 sec (  0.000 min) = 11.8%
 Schwartz matrix evaluation time         ...   0.122 sec (  0.002 min) = 67.5%
 Two index repulsion integral time       ...   0.002 sec (  0.000 min) =  1.0%
 Cholesky decomposition of V             ...   0.002 sec (  0.000 min) =  1.0%
 Three index repulsion integral time     ...   0.000 sec (  0.000 min) =  0.0%



           ************************************************************
           *        Program running with 24 parallel MPI-processes    *
           *              working on a common directory               *
           ************************************************************
-------------------------------------------------------------------------------
                                 ORCA SCF
-------------------------------------------------------------------------------

------------
SCF SETTINGS
------------
Hamiltonian:
 Density Functional     Method          .... DFT(GTOs)
 Exchange Functional    Exchange        .... B88
   X-Alpha parameter    XAlpha          ....  0.666667
   Becke's b parameter  XBeta           ....  0.004200
 Correlation Functional Correlation     .... LYP
 LDA part of GGA corr.  LDAOpt          .... VWN-5
 Gradients option       PostSCFGGA      .... off
 Hybrid DFT is turned on
   Fraction HF Exchange ScalHFX         ....  0.710000
   Scaling of DF-GGA-X  ScalDFX         ....  0.290000
   Scaling of DF-GGA-C  ScalDFC         ....  0.540000
   Scaling of DF-LDA-C  ScalLDAC        ....  0.540000
   Perturbative correction              ....  1.000000
   Density functional embedding theory  .... OFF
 RI-approximation to the Coulomb term is turned on
   Number of auxiliary basis functions  .... 317
   RI-JK (J+K treated both via RI)      .... on


General Settings:
 Integral files         IntName         .... 136
 Hartree-Fock type      HFTyp           .... RHF
 Total Charge           Charge          ....    0
 Multiplicity           Mult            ....    1
 Number of Electrons    NEL             ....   24
 Basis Dimension        Dim             ....  199
 Nuclear Repulsion      ENuc            ....     67.9130474651 Eh

Convergence Acceleration:
 DIIS                   CNVDIIS         .... on
   Start iteration      DIISMaxIt       ....    12
   Startup error        DIISStart       ....  0.200000
   # of expansion vecs  DIISMaxEq       ....     5
   Bias factor          DIISBfac        ....   1.050
   Max. coefficient     DIISMaxC        ....  10.000
 Newton-Raphson         CNVNR           .... off
 SOSCF                  CNVSOSCF        .... on
   Start iteration      SOSCFMaxIt      ....   150
   Startup grad/error   SOSCFStart      ....  0.003300
 Level Shifting         CNVShift        .... on
   Level shift para.    LevelShift      ....    0.2500
   Turn off err/grad.   ShiftErr        ....    0.0010
 Zerner damping         CNVZerner       .... off
 Static damping         CNVDamp         .... on
   Fraction old density DampFac         ....    0.7000
   Max. Damping (<1)    DampMax         ....    0.9800
   Min. Damping (>=0)   DampMin         ....    0.0000
   Turn off err/grad.   DampErr         ....    0.1000
 Fernandez-Rico         CNVRico         .... off

SCF Procedure:
 Maximum # iterations   MaxIter         ....   125
 SCF integral mode      SCFMode         .... Direct
   Integral package                     .... LIBINT
 Reset frequency        DirectResetFreq ....    20
 Integral Threshold     Thresh          ....  1.000e-10 Eh
 Primitive CutOff       TCut            ....  1.000e-11 Eh

Convergence Tolerance:
 Convergence Check Mode ConvCheckMode   .... Total+1el-Energy
 Convergence forced     ConvForced      .... 0
 Energy Change          TolE            ....  1.000e-06 Eh
 1-El. energy change                    ....  1.000e-03 Eh
 Orbital Gradient       TolG            ....  5.000e-05
 Orbital Rotation angle TolX            ....  5.000e-05
 DIIS Error             TolErr          ....  1.000e-06


Diagonalization of the overlap matrix:
Smallest eigenvalue                        ... 4.199e-05
Time for diagonalization                   ...    0.010 sec
Threshold for overlap eigenvalues          ... 1.000e-08
Number of eigenvalues below threshold      ... 0
Time for construction of square roots      ...    0.005 sec
Total time needed                          ...    0.015 sec

-------------------
DFT GRID GENERATION
-------------------

General Integration Accuracy     IntAcc      ...  4.670
Radial Grid Type                 RadialGrid  ... Gauss-Chebyshev
Angular Grid (max. acc.)         AngularGrid ... Lebedev-302
Angular grid pruning method      GridPruning ... 3 (G Style)
Weight generation scheme         WeightScheme... Becke
Basis function cutoff            BFCut       ...    1.0000e-10
Integration weight cutoff        WCut        ...    1.0000e-14
Grids for H and He will be reduced by one unit

# of grid points (after initial pruning)     ...  35522 (   0.0 sec)
# of grid points (after weights+screening)   ...  34180 (   0.0 sec)
nearest neighbour list constructed           ...    0.0 sec
Grid point re-assignment to atoms done       ...    0.0 sec
Grid point division into batches done        ...    0.1 sec
Reduced shell lists constructed in    0.2 sec

Total number of grid points                  ...    34180
Total number of batches                      ...      537
Average number of points per batch           ...       63
Average number of grid points per atom       ...     4272
Average number of shells per batch           ...    28.17 (37.56%)
Average number of basis functions per batch  ...    67.75 (34.05%)
Average number of large shells per batch     ...    20.29 (72.04%)
Average number of large basis fcns per batch ...    48.54 (71.65%)
Average number of aux-shells per batch       ...    28.17 (26.83%)
Average number of aux functions per batch    ...    67.75 (21.37%)
Maximum spatial batch extension              ...  19.58, 15.09, 19.12 au
Average spatial batch extension              ...   0.43,  0.35,  0.43 au

Time for grid setup =    0.179 sec

------------------------------
INITIAL GUESS: MODEL POTENTIAL
------------------------------
Loading Hartree-Fock densities                     ... done
Calculating cut-offs                               ... done
Setting up the integral package                    ... done
Initializing the effective Hamiltonian             ... done
Starting the Coulomb interaction                   ... done (   0.0 sec)
Reading the grid                                   ... done
Mapping shells                                     ... done
Starting the XC term evaluation                    ... done (   0.0 sec)
  promolecular density results
     # of electrons  =     23.997550493
     EX              =    -18.562938140
     EC              =     -0.072502082
     EX+EC           =    -18.635440222
Transforming the Hamiltonian                       ... done (   0.0 sec)
Diagonalizing the Hamiltonian                      ... done (   0.0 sec)
Back transforming the eigenvectors                 ... done (   0.0 sec)
Now organizing SCF variables                       ... done
                      ------------------
                      INITIAL GUESS DONE (   0.3 sec)
                      ------------------
--------------
SCF ITERATIONS
--------------
ITER       Energy         Delta-E        Max-DP      RMS-DP      [F,P]     Damp
  0   -140.6518992534   0.000000000000 0.03479688  0.00076571  0.2187764 0.7000
  1   -140.5673576073   0.084541646099 0.03084192  0.00075775  0.1795828 0.7000
                               ***Turning on DIIS***
  2   -140.5888777355  -0.021520128135 0.06050101  0.00166862  0.0798377 0.0000
  3   -140.7199018217  -0.131024086219 0.00970576  0.00019999  0.1390896 0.7000
  4   -140.7635895739  -0.043687752249 0.00944555  0.00021133  0.1269355 0.7000
  5   -140.7717157071  -0.008126133196 0.02321975  0.00060044  0.0936335 0.0000
  6   -140.7482160702   0.023499636913 0.00620373  0.00011298  0.0095856 0.0000
  7   -140.7484578297  -0.000241759458 0.00174674  0.00003988  0.0060282 0.0000
                      *** Initiating the SOSCF procedure ***
                           *** Shutting down DIIS ***
                      *** Re-Reading the Fockian *** 
                      *** Removing any level shift *** 
ITER      Energy       Delta-E        Grad      Rot      Max-DP    RMS-DP
  8   -140.74850259  -0.0000447620  0.000334  0.000334  0.000509  0.000016
  9   -140.74850881  -0.0000062210  0.000333  0.000698  0.000581  0.000013
 10   -140.74850977  -0.0000009563  0.000190  0.000091  0.000270  0.000007
 11   -140.74851071  -0.0000009438  0.000047  0.000096  0.000095  0.000003
                 **** Energy Check signals convergence ****
              ***Rediagonalizing the Fockian in SOSCF/NRSCF***

               *****************************************************
               *                     SUCCESS                       *
               *           SCF CONVERGED AFTER  12 CYCLES          *
               *****************************************************


----------------
TOTAL SCF ENERGY
----------------

Total Energy       :         -140.74851076 Eh           -3829.96169 eV

Components:
Nuclear Repulsion  :           67.91304747 Eh            1848.00797 eV
Electronic Energy  :         -208.66155822 Eh           -5677.96966 eV
One Electron Energy:         -325.01763610 Eh           -8844.17951 eV
Two Electron Energy:          116.35607788 Eh            3166.20985 eV

Virial components:
Potential Energy   :         -280.95087320 Eh           -7645.06193 eV
Kinetic Energy     :          140.20236244 Eh            3815.10024 eV
Virial Ratio       :            2.00389543


DFT components:
N(Alpha)           :       12.000005242130 electrons
N(Beta)            :       12.000005242130 electrons
N(Total)           :       24.000010484260 electrons
E(X)               :       -5.526923282545 Eh       
E(C)               :       -0.413848082595 Eh       
E(XC)              :       -5.940771365140 Eh       
DFET-embed. en.    :        0.000000000000 Eh       

---------------
SCF CONVERGENCE
---------------

  Last Energy change         ...   -4.7137e-08  Tolerance :   1.0000e-06
  Last MAX-Density change    ...    3.3678e-05  Tolerance :   1.0000e-05
  Last RMS-Density change    ...    9.5915e-07  Tolerance :   1.0000e-06
  Last Orbital Gradient      ...    2.2359e-05  Tolerance :   5.0000e-05
  Last Orbital Rotation      ...    3.9836e-05  Tolerance :   5.0000e-05

             **** THE GBW FILE WAS UPDATED (136.gbw) ****
             **** DENSITY FILE WAS UPDATED (136.scfp) ****
             **** ENERGY FILE WAS UPDATED (136.en.tmp) ****
             **** THE GBW FILE WAS UPDATED (136.gbw) ****
             **** DENSITY FILE WAS UPDATED (136.scfp) ****
----------------
ORBITAL ENERGIES
----------------

  NO   OCC          E(Eh)            E(eV) 
   0   2.0000     -20.074908      -546.2660 
   1   2.0000     -10.901718      -296.6508 
   2   2.0000      -7.337754      -199.6704 
   3   2.0000      -1.262219       -34.3467 
   4   2.0000      -0.821601       -22.3569 
   5   2.0000      -0.636658       -17.3243 
   6   2.0000      -0.583898       -15.8887 
   7   2.0000      -0.569414       -15.4946 
   8   2.0000      -0.522397       -14.2152 
   9   2.0000      -0.490835       -13.3563 
  10   2.0000      -0.429928       -11.6989 
  11   2.0000      -0.383922       -10.4470 
  12   0.0000       0.036800         1.0014 
  13   0.0000       0.047080         1.2811 
  14   0.0000       0.059292         1.6134 
  15   0.0000       0.076017         2.0685 
  16   0.0000       0.101738         2.7684 
  17   0.0000       0.109054         2.9675 
  18   0.0000       0.113181         3.0798 
  19   0.0000       0.120991         3.2923 
  20   0.0000       0.128300         3.4912 
  21   0.0000       0.137190         3.7331 
  22   0.0000       0.166325         4.5259 
  23   0.0000       0.177650         4.8341 
  24   0.0000       0.182778         4.9737 
  25   0.0000       0.186403         5.0723 
  26   0.0000       0.191774         5.2184 
  27   0.0000       0.203447         5.5361 
  28   0.0000       0.212160         5.7732 
  29   0.0000       0.229440         6.2434 
  30   0.0000       0.235042         6.3958 
  31   0.0000       0.259856         7.0710 
  32   0.0000       0.266918         7.2632 
  33   0.0000       0.278808         7.5868 
  34   0.0000       0.296124         8.0579 
  35   0.0000       0.303582         8.2609 
  36   0.0000       0.311317         8.4714 
  37   0.0000       0.335172         9.1205 
  38   0.0000       0.342843         9.3292 
  39   0.0000       0.356699         9.7063 
  40   0.0000       0.360858         9.8194 
  41   0.0000       0.367156         9.9908 
  42   0.0000       0.373641        10.1673 
  43   0.0000       0.391457        10.6521 
  44   0.0000       0.398801        10.8519 
  45   0.0000       0.403096        10.9688 
  46   0.0000       0.403621        10.9831 
  47   0.0000       0.427150        11.6234 
  48   0.0000       0.441033        12.0011 
  49   0.0000       0.455718        12.4007 
  50   0.0000       0.459185        12.4951 
  51   0.0000       0.480401        13.0724 
  52   0.0000       0.494003        13.4425 
  53   0.0000       0.501986        13.6597 
  54   0.0000       0.518726        14.1152 
  55   0.0000       0.522369        14.2144 
  56   0.0000       0.557970        15.1831 
  57   0.0000       0.592141        16.1130 
  58   0.0000       0.597030        16.2460 
  59   0.0000       0.615280        16.7426 
  60   0.0000       0.646271        17.5859 
  61   0.0000       0.669405        18.2154 
  62   0.0000       0.691640        18.8205 
  63   0.0000       0.710928        19.3453 
  64   0.0000       0.745630        20.2896 
  65   0.0000       0.788873        21.4663 
  66   0.0000       0.813977        22.1494 
  67   0.0000       0.829967        22.5845 
  68   0.0000       0.832016        22.6403 
  69   0.0000       0.858423        23.3589 
  70   0.0000       0.869460        23.6592 
  71   0.0000       0.893638        24.3171 
  72   0.0000       0.909432        24.7469 
  73   0.0000       0.922408        25.1000 
  74   0.0000       0.933336        25.3974 
  75   0.0000       0.970208        26.4007 
  76   0.0000       0.999861        27.2076 
  77   0.0000       1.046361        28.4729 
  78   0.0000       1.065280        28.9877 
  79   0.0000       1.082998        29.4699 
  80   0.0000       1.137679        30.9578 
  81   0.0000       1.166858        31.7518 
  82   0.0000       1.181383        32.1471 
  83   0.0000       1.204580        32.7783 
  84   0.0000       1.241311        33.7778 
  85   0.0000       1.244051        33.8523 
  86   0.0000       1.262258        34.3478 
  87   0.0000       1.280258        34.8376 
  88   0.0000       1.284199        34.9448 
  89   0.0000       1.332953        36.2715 
  90   0.0000       1.374300        37.3966 
  91   0.0000       1.383279        37.6409 
  92   0.0000       1.398798        38.0632 
  93   0.0000       1.443034        39.2669 
  94   0.0000       1.448697        39.4210 
  95   0.0000       1.500876        40.8409 
  96   0.0000       1.522930        41.4410 
  97   0.0000       1.643608        44.7248 
  98   0.0000       1.669338        45.4250 
  99   0.0000       1.697306        46.1860 
 100   0.0000       1.727556        47.0092 
 101   0.0000       1.830784        49.8182 
 102   0.0000       1.856407        50.5154 
 103   0.0000       1.933000        52.5996 
 104   0.0000       1.941481        52.8304 
 105   0.0000       2.009948        54.6935 
 106   0.0000       2.037768        55.4505 
 107   0.0000       2.087282        56.7978 
 108   0.0000       2.128855        57.9291 
 109   0.0000       2.198416        59.8219 
 110   0.0000       2.204104        59.9767 
 111   0.0000       2.227371        60.6098 
 112   0.0000       2.283965        62.1498 
 113   0.0000       2.366026        64.3828 
 114   0.0000       2.375330        64.6360 
 115   0.0000       2.504719        68.1569 
 116   0.0000       2.547441        69.3194 
 117   0.0000       2.580480        70.2184 
 118   0.0000       2.592074        70.5339 
 119   0.0000       2.618237        71.2459 
 120   0.0000       2.636657        71.7471 
 121   0.0000       2.740690        74.5780 
 122   0.0000       2.765788        75.2609 
 123   0.0000       2.820375        76.7463 
 124   0.0000       2.987474        81.2933 
 125   0.0000       2.999229        81.6132 
 126   0.0000       3.038962        82.6944 
 127   0.0000       3.082576        83.8812 
 128   0.0000       3.090809        84.1052 
 129   0.0000       3.124724        85.0281 
 130   0.0000       3.168509        86.2195 
 131   0.0000       3.231711        87.9393 
 132   0.0000       3.313733        90.1712 
 133   0.0000       3.318994        90.3144 
 134   0.0000       3.349176        91.1357 
 135   0.0000       3.378751        91.9405 
 136   0.0000       3.472947        94.5037 
 137   0.0000       3.484452        94.8168 
 138   0.0000       3.490510        94.9816 
 139   0.0000       3.570388        97.1552 
 140   0.0000       3.597183        97.8843 
 141   0.0000       3.675524       100.0161 
 142   0.0000       3.684302       100.2549 
 143   0.0000       3.717538       101.1593 
 144   0.0000       3.787987       103.0764 
 145   0.0000       3.821524       103.9890 
 146   0.0000       3.844038       104.6016 
 147   0.0000       3.871231       105.3415 
 148   0.0000       3.894186       105.9662 
 149   0.0000       3.897134       106.0464 
 150   0.0000       3.977067       108.2215 
 151   0.0000       3.983505       108.3967 
 152   0.0000       3.988266       108.5262 
 153   0.0000       3.989406       108.5572 
 154   0.0000       3.999262       108.8255 
 155   0.0000       4.059450       110.4632 
 156   0.0000       4.098385       111.5227 
 157   0.0000       4.115447       111.9870 
 158   0.0000       4.171871       113.5224 
 159   0.0000       4.218103       114.7804 
 160   0.0000       4.298580       116.9703 
 161   0.0000       4.301882       117.0601 
 162   0.0000       4.313775       117.3838 
 163   0.0000       4.352295       118.4320 
 164   0.0000       4.501316       122.4870 
 165   0.0000       4.505921       122.6124 
 166   0.0000       4.642440       126.3272 
 167   0.0000       4.693349       127.7125 
 168   0.0000       4.829645       131.4213 
 169   0.0000       4.901179       133.3679 
 170   0.0000       4.967594       135.1751 
 171   0.0000       4.992951       135.8651 
 172   0.0000       5.019060       136.5756 
 173   0.0000       5.034799       137.0038 
 174   0.0000       5.142052       139.9223 
 175   0.0000       5.324725       144.8931 
 176   0.0000       5.477542       149.0515 
 177   0.0000       5.564981       151.4308 
 178   0.0000       5.581058       151.8683 
 179   0.0000       5.591875       152.1627 
 180   0.0000       5.650932       153.7697 
 181   0.0000       5.703347       155.1960 
 182   0.0000       5.749039       156.4393 
 183   0.0000       5.795274       157.6974 
 184   0.0000       5.818104       158.3187 
 185   0.0000       5.957512       162.1121 
 186   0.0000       6.040818       164.3790 
 187   0.0000       6.074824       165.3044 
 188   0.0000       6.260083       170.3455 
 189   0.0000       6.398332       174.1075 
 190   0.0000       6.979464       189.9209 
 191   0.0000       7.054676       191.9675 
 192   0.0000       7.070109       192.3874 
 193   0.0000       7.178410       195.3345 
 194   0.0000       7.405546       201.5152 
 195   0.0000       7.666073       208.6045 
 196   0.0000      16.507501       449.1919 
 197   0.0000      23.978682       652.4931 
 198   0.0000      45.115079      1227.6437 

                    ********************************
                    * MULLIKEN POPULATION ANALYSIS *
                    ********************************

-----------------------
MULLIKEN ATOMIC CHARGES
-----------------------
   0 H :    0.004452
   1 H :   -0.014387
   2 H :    0.038308
   3 H :    0.019096
   4 H :    0.018120
   5 O :   -0.496123
   6 C :    0.100151
   7 B :    0.330384
Sum of atomic charges:   -0.0000000

--------------------------------
MULLIKEN REDUCED ORBITAL CHARGES
--------------------------------
  0 H s       :     0.977727  s :     0.977727
      pz      :     0.002788  p :     0.017659
      px      :     0.001967
      py      :     0.012904
      dz2     :     0.000017  d :     0.000162
      dxz     :     0.000008
      dyz     :     0.000040
      dx2y2   :     0.000051
      dxy     :     0.000047
  1 H s       :     0.986139  s :     0.986139
      pz      :     0.004269  p :     0.028105
      px      :     0.004071
      py      :     0.019765
      dz2     :     0.000013  d :     0.000143
      dxz     :     0.000008
      dyz     :     0.000035
      dx2y2   :     0.000049
      dxy     :     0.000038
  2 H s       :     0.927581  s :     0.927581
      pz      :     0.014012  p :     0.032101
      px      :     0.009376
      py      :     0.008713
      dz2     :     0.000350  d :     0.002009
      dxz     :     0.000375
      dyz     :     0.000330
      dx2y2   :     0.000583
      dxy     :     0.000372
  3 H s       :     0.952285  s :     0.952285
      pz      :     0.013212  p :     0.028309
      px      :     0.005632
      py      :     0.009464
      dz2     :     0.000025  d :     0.000311
      dxz     :     0.000017
      dyz     :     0.000107
      dx2y2   :     0.000071
      dxy     :     0.000090
  4 H s       :     0.941744  s :     0.941744
      pz      :     0.017403  p :     0.038118
      px      :     0.011717
      py      :     0.008998
      dz2     :     0.000436  d :     0.002018
      dxz     :     0.000464
      dyz     :     0.000279
      dx2y2   :     0.000311
      dxy     :     0.000528
  5 O s       :     3.919197  s :     3.919197
      pz      :     1.334258  p :     4.546250
      px      :     1.653092
      py      :     1.558900
      dz2     :     0.011385  d :     0.029335
      dxz     :     0.000569
      dyz     :     0.002747
      dx2y2   :     0.007546
      dxy     :     0.007087
      f0      :     0.000258  f :     0.001340
      f+1     :     0.000131
      f-1     :     0.000203
      f+2     :     0.000110
      f-2     :     0.000210
      f+3     :     0.000225
      f-3     :     0.000203
  6 C s       :     3.157677  s :     3.157677
      pz      :     0.668927  p :     2.638621
      px      :     0.950991
      py      :     1.018702
      dz2     :     0.024435  d :     0.095636
      dxz     :     0.036088
      dyz     :     0.026548
      dx2y2   :     0.001129
      dxy     :     0.007436
      f0      :     0.002094  f :     0.007915
      f+1     :     0.001779
      f-1     :     0.001882
      f+2     :     0.000811
      f-2     :     0.000808
      f+3     :     0.000202
      f-3     :     0.000340
  7 B s       :     2.772229  s :     2.772229
      pz      :     0.807252  p :     1.697807
      px      :     0.308829
      py      :     0.581726
      dz2     :     0.033758  d :     0.169631
      dxz     :     0.020734
      dyz     :     0.053444
      dx2y2   :     0.035582
      dxy     :     0.026113
      f0      :     0.004862  f :     0.029948
      f+1     :     0.001952
      f-1     :     0.003994
      f+2     :     0.003013
      f-2     :     0.004812
      f+3     :     0.003695
      f-3     :     0.007620


                     *******************************
                     * LOEWDIN POPULATION ANALYSIS *
                     *******************************

----------------------
LOEWDIN ATOMIC CHARGES
----------------------
   0 H :    0.031226
   1 H :    0.012049
   2 H :   -0.017300
   3 H :    0.021943
   4 H :   -0.013104
   5 O :    0.001215
   6 C :    0.140695
   7 B :   -0.176724

-------------------------------
LOEWDIN REDUCED ORBITAL CHARGES
-------------------------------
  0 H s       :     0.908744  s :     0.908744
      pz      :     0.006547  p :     0.054350
      px      :     0.006285
      py      :     0.041517
      dz2     :     0.000617  d :     0.005681
      dxz     :     0.000229
      dyz     :     0.001501
      dx2y2   :     0.001792
      dxy     :     0.001541
  1 H s       :     0.880812  s :     0.880812
      pz      :     0.009160  p :     0.101644
      px      :     0.012954
      py      :     0.079531
      dz2     :     0.000574  d :     0.005494
      dxz     :     0.000234
      dyz     :     0.001529
      dx2y2   :     0.001683
      dxy     :     0.001474
  2 H s       :     0.715107  s :     0.715107
      pz      :     0.068484  p :     0.274672
      px      :     0.103412
      py      :     0.102776
      dz2     :     0.003690  d :     0.027520
      dxz     :     0.004863
      dyz     :     0.004952
      dx2y2   :     0.007635
      dxy     :     0.006379
  3 H s       :     0.832760  s :     0.832760
      pz      :     0.059978  p :     0.136099
      px      :     0.022582
      py      :     0.053539
      dz2     :     0.001924  d :     0.009197
      dxz     :     0.000806
      dyz     :     0.003414
      dx2y2   :     0.001324
      dxy     :     0.001728
  4 H s       :     0.717151  s :     0.717151
      pz      :     0.074424  p :     0.268461
      px      :     0.115150
      py      :     0.078887
      dz2     :     0.004239  d :     0.027492
      dxz     :     0.007910
      dyz     :     0.003223
      dx2y2   :     0.005131
      dxy     :     0.006989
  5 O s       :     3.303084  s :     3.303084
      pz      :     1.255655  p :     4.330724
      px      :     1.500904
      py      :     1.574165
      dz2     :     0.089317  d :     0.361048
      dxz     :     0.074284
      dyz     :     0.116731
      dx2y2   :     0.031659
      dxy     :     0.049057
      f0      :     0.001043  f :     0.003929
      f+1     :     0.000473
      f-1     :     0.000767
      f+2     :     0.000330
      f-2     :     0.000741
      f+3     :     0.000482
      f-3     :     0.000094
  6 C s       :     2.681492  s :     2.681492
      pz      :     0.743886  p :     2.546303
      px      :     0.910218
      py      :     0.892198
      dz2     :     0.139447  d :     0.584678
      dxz     :     0.200632
      dyz     :     0.161756
      dx2y2   :     0.030105
      dxy     :     0.052738
      f0      :     0.015168  f :     0.046831
      f+1     :     0.008994
      f-1     :     0.011134
      f+2     :     0.003725
      f-2     :     0.004625
      f+3     :     0.001456
      f-3     :     0.001728
  7 B s       :     2.571151  s :     2.571151
      pz      :     0.708202  p :     1.669460
      px      :     0.328524
      py      :     0.632734
      dz2     :     0.136907  d :     0.739290
      dxz     :     0.109830
      dyz     :     0.225296
      dx2y2   :     0.130844
      dxy     :     0.136413
      f0      :     0.035655  f :     0.196824
      f+1     :     0.015517
      f-1     :     0.024452
      f+2     :     0.020626
      f-2     :     0.032016
      f+3     :     0.026817
      f-3     :     0.041742


                      *****************************
                      * MAYER POPULATION ANALYSIS *
                      *****************************

  NA   - Mulliken gross atomic population
  ZA   - Total nuclear charge
  QA   - Mulliken gross atomic charge
  VA   - Mayer's total valence
  BVA  - Mayer's bonded valence
  FA   - Mayer's free valence

  ATOM       NA         ZA         QA         VA         BVA        FA
  0 H      0.9955     1.0000     0.0045     1.0013     1.0013    -0.0000
  1 H      1.0144     1.0000    -0.0144     1.0061     1.0061    -0.0000
  2 H      0.9617     1.0000     0.0383     1.0225     1.0225    -0.0000
  3 H      0.9809     1.0000     0.0191     1.0372     1.0372    -0.0000
  4 H      0.9819     1.0000     0.0181     1.0353     1.0353    -0.0000
  5 O      8.4961     8.0000    -0.4961     2.0717     2.0717    -0.0000
  6 C      5.8998     6.0000     0.1002     3.8022     3.8022    -0.0000
  7 B      4.6696     5.0000     0.3304     3.2100     3.2100    -0.0000

  Mayer bond orders larger than 0.100000
B(  0-H ,  1-H ) :   1.0070 B(  2-H ,  6-C ) :   0.9965 B(  3-H ,  7-B ) :   0.9724 
B(  4-H ,  6-C ) :   1.0227 B(  5-O ,  6-C ) :   0.7488 B(  5-O ,  7-B ) :   1.2298 
B(  6-C ,  7-B ) :   1.0059 

-------
TIMINGS
-------

Total SCF time: 0 days 0 hours 0 min 2 sec 

Total time                  ....       2.467 sec
Sum of individual times     ....       2.334 sec  ( 94.6%)

Fock matrix formation       ....       1.941 sec  ( 78.7%)
  XC integration            ....       0.406 sec  ( 20.9% of F)
    Basis function eval.    ....       0.075 sec  ( 18.5% of XC)
    Density eval.           ....       0.056 sec  ( 13.8% of XC)
    XC-Functional eval.     ....       0.016 sec  (  3.8% of XC)
    XC-Potential eval.      ....       0.108 sec  ( 26.7% of XC)
Diagonalization             ....       0.054 sec  (  2.2%)
Density matrix formation    ....       0.010 sec  (  0.4%)
Population analysis         ....       0.007 sec  (  0.3%)
Initial guess               ....       0.107 sec  (  4.3%)
Orbital Transformation      ....       0.000 sec  (  0.0%)
Orbital Orthonormalization  ....       0.000 sec  (  0.0%)
DIIS solution               ....       0.023 sec  (  0.9%)
SOSCF solution              ....       0.014 sec  (  0.6%)
Grid generation             ....       0.179 sec  (  7.3%)


           ************************************************************
           *        Program running with 24 parallel MPI-processes    *
           *              working on a common directory               *
           ************************************************************

------------------------------------------------------------------------------
                                ORCA  MP2 
------------------------------------------------------------------------------

Freezing NCore=6 chemical core electrons

-------------
RI-MP2 ENERGY
-------------
Dimension of the basis                    ...  199
Memory devoted to MP2                     ... 5000 MB   
Data format for buffers                   ... DOUBLE
Compression type for matrix containers    ... UNCOMPRESSED
Scaling for aa/bb pairs                   ...   4.000e-01
Scaling for ab pairs                      ...   4.700e-01
Overall scaling of the MP2 energy         ...   1.000e+00
Calculating two index integrals           ... done (    0.002 sec)
Cholesky decomposition of V**-1           ... done (    0.016 sec)

-----------------
RI-TRANSFORMATION (AUX index driven)
-----------------

Dimension of the orbital-basis         ... 199
Dimension of the aux-basis             ... 471
Transformation of internal/external MOs...    3-  11 to   12- 198
Number Format for Storage              ... Double (8 Byte)
Integral mode                          ... Direct

First Phase: integral generation and transformation of MO indices
  Aux angular momentum 0               ... done (    0.003 sec)
  Aux angular momentum 1               ... done (    0.003 sec)
  Aux angular momentum 2               ... done (    0.005 sec)
  Aux angular momentum 3               ... done (    0.004 sec)
  Aux angular momentum 4               ... done (    0.005 sec)
Closing buffer VIA ( 0.01 GB; CompressionRatio= 1.00)
  Phase 1 completed in     0.092 sec
Second Phase: sorting and transformation of aux index

IA-Transformation
Memory available                       ... 4996 MB 
Max. # MO pairs treated in a batch     ... 1    
# of internal orbitals                 ... 9
# batches for internal orbitals        ... 1
Closing buffer IAV ( 0.00 GB; CompressionRatio= 1.00)
(ia|v) transformation done in     0.006 sec

  Phase 2 completed in     0.013 sec
RI-Integral transformation completed in     0.106 sec
Opening buffers                              ... done

Starting loop over batches of integrals:

Operator 0  - window                       ... (  3- 11)x( 12-198)
Operator 0  - Memory available             ...  5000 MB
Operator 0  - Memory needed per MO         ...   0.7 MB
Operator 0  - Number of orbitals per batch ... 1
Operator 0  - Number of batches            ... 1

OPERATOR  0   PASS   0:  MOs     3 ...    3 +    4 ...    4 +    5 ...    5 +    6 ...    6
                            +    7 ...    7 +    8 ...    8 +    9 ...    9 +   10 ...   10
                            +   11 ...   11
  Reading integrals       ... ok
Time spent in pair loops =     0.003 sec
Deleting buffer (Ka|jb)[aa] ...done

-----------------------------------------------
 RI-MP2 CORRELATION ENERGY:     -0.274130411 Eh
-----------------------------------------------


-------
TIMINGS
-------

Total time                :    0.152 sec
Integral trafo            :    0.122 sec ( 80.1%)
I/O of integrals          :    0.001 sec (  0.4%)
K(i,j) Operators          :    0.001 sec (  0.4%)
T(i,j) pair energies      :    0.000 sec (  0.2%)
V-calculation             :    0.002 sec (  1.2%)
V**(-1/2)                 :    0.016 sec ( 10.8%)
Gamma(ia|P)               :    0.000 sec (  0.0%)
Gamma-Trafo               :    0.000 sec (  0.0%)
D(virtual)                :    0.000 sec (  0.0%)
D(internal)               :    0.000 sec (  0.0%)
W(virtual)                :    0.000 sec (  0.0%)
W(internal)               :    0.000 sec (  0.0%)
L(virtual)                :    0.000 sec (  0.0%)
L(internal)               :    0.000 sec (  0.0%)
G(D)                      :    0.000 sec (  0.0%)
G(Z)                      :    0.000 sec (  0.0%)
Z-Vector Solution         :    0.000 sec (  0.0%)
Z-Vector Solution         :    0.000 sec (  0.0%)
3-Index Derivative 
+ Separable RIJ part      :    0.000 sec (  0.0%)
2-Index Derivative 
+ Separable RIJ part      :    0.000 sec (  0.0%)
Separable Gradient (X)    :    0.000 sec (  0.0%)


---------------------------------------
MP2 TOTAL ENERGY:     -141.022641171 Eh
---------------------------------------


-------------------------------------------------------------------------------
                          DFT DISPERSION CORRECTION                            
                                                                               
                              DFTD3 V3.1  Rev 1                                
                          USING Becke-Johnson damping                          
-------------------------------------------------------------------------------
The DSD-BLYP/2013 functional is recognized
Active option DFTDOPT                   ...         4   

molecular C6(AA) [au] = 477.397028 


            DFT-D V3
 parameters
 s6 scaling factor         :     0.5700 
 a1 scaling factor         :     0.0000 
 s8 scaling factor         :     0.0000 
 a2 scaling factor         :     5.4000 
 ad hoc parameters k1-k3   :    16.0000     1.3333    -4.0000 

 Edisp/kcal,au: -1.920834233179  -0.003061043869 
 E6   /kcal   :  -1.920834233 
 E8   /kcal   :  -0.000000000 
 % E8         :   0.000000000 

-------------------------   ----------------
Dispersion correction           -0.003061044
-------------------------   ----------------


-------------------------   --------------------
FINAL SINGLE POINT ENERGY      -141.025702214876
-------------------------   --------------------


                            ***************************************
                            *     ORCA property calculations      *
                            ***************************************


  WARNING: The energy has been calculated at the MP2 level but the densities
           used in the property calculations are still SCF densities
           MP2 response densities have not been calculated 
           use %mp2 Density relaxed end
           or  %mp2 Density unrelaxed end

                                    ---------------------
                                    Active property flags
                                    ---------------------
   (+) Dipole Moment


------------------------------------------------------------------------------
                       ORCA ELECTRIC PROPERTIES CALCULATION
------------------------------------------------------------------------------

Dipole Moment Calculation                       ... on
Quadrupole Moment Calculation                   ... off
Polarizability Calculation                      ... off
GBWName                                         ... 136.gbw
Electron density file                           ... 136.scfp
The origin for moment calculation is the CENTER OF MASS  = ( 0.480722, -1.016230 -0.300766)

-------------
DIPOLE MOMENT
-------------
                                X             Y             Z
Electronic contribution:      1.47274      -5.72409      -1.01586
Nuclear contribution   :     -1.71035       5.24617       1.44476
                        -----------------------------------------
Total Dipole Moment    :     -0.23760      -0.47792       0.42890
                        -----------------------------------------
Magnitude (a.u.)       :      0.68470
Magnitude (Debye)      :      1.74038



--------------------
Rotational spectrum 
--------------------
 
Rotational constants in cm-1:     0.613602     0.430998     0.306642 
Rotational constants in MHz : 18395.316675 12920.983545  9192.908699 

 Dipole components along the rotational axes: 
x,y,z [a.u.] :    -0.477924     0.428893     0.237611 
x,y,z [Debye]:    -1.214787     1.090158     0.603960 

 

Timings for individual modules:

Sum of individual times         ...        3.929 sec (=   0.065 min)
GTO integral calculation        ...        0.536 sec (=   0.009 min)  13.6 %
SCF iterations                  ...        2.801 sec (=   0.047 min)  71.3 %
MP2 module                      ...        0.592 sec (=   0.010 min)  15.1 %
                             ****ORCA TERMINATED NORMALLY****
TOTAL RUN TIME: 0 days 0 hours 0 minutes 4 seconds 418 msec
