
                                 *****************
                                 * O   R   C   A *
                                 *****************

           --- An Ab Initio, DFT and Semiempirical electronic structure package ---

                  #######################################################
                  #                        -***-                        #
                  #          Department of theory and spectroscopy      #
                  #               Directorship: Frank Neese             #
                  #        Max Planck Institute fuer Kohlenforschung    #
                  #                Kaiser Wilhelm Platz 1               #
                  #                 D-45470 Muelheim/Ruhr               #
                  #                      Germany                        #
                  #                                                     #
                  #                  All rights reserved                #
                  #                        -***-                        #
                  #######################################################


                         Program Version 4.2.0 -  RELEASE  -


 With contributions from (in alphabetic order):
   Daniel Aravena         : Magnetic Suceptibility
   Michael Atanasov       : Ab Initio Ligand Field Theory (pilot matlab implementation)
   Alexander A. Auer      : GIAO ZORA, VPT2
   Ute Becker             : Parallelization
   Giovanni Bistoni       : ED, misc. LED, open-shell LED, HFLED
   Martin Brehm           : Molecular dynamics
   Dmytro Bykov           : SCF Hessian
   Vijay G. Chilkuri      : MRCI spin determinant printing, contributions to CSF-ICE
   Dipayan Datta          : RHF DLPNO-CCSD density
   Achintya Kumar Dutta   : EOM-CC, STEOM-CC
   Dmitry Ganyushin       : Spin-Orbit,Spin-Spin,Magnetic field MRCI
   Miquel Garcia          : C-PCM Hessian, Gaussian charge scheme
   Yang Guo               : DLPNO-NEVPT2, CIM, IAO-localization
   Andreas Hansen         : Spin unrestricted coupled pair/coupled cluster methods
   Benjamin Helmich-Paris : CASSCF linear response (MC-RPA)
   Lee Huntington         : MR-EOM, pCC
   Robert Izsak           : Overlap fitted RIJCOSX, COSX-SCS-MP3, EOM
   Christian Kollmar      : KDIIS, OOCD, Brueckner-CCSD(T), CCSD density
   Simone Kossmann        : Meta GGA functionals, TD-DFT gradient, OOMP2, MP2 Hessian
   Martin Krupicka        : AUTO-CI
   Lucas Lang             : DCDCAS
   Dagmar Lenk            : GEPOL surface, SMD
   Dimitrios Liakos       : Extrapolation schemes; Compound Job, initial MDCI parallelization
   Dimitrios Manganas     : Further ROCIS development; embedding schemes
   Dimitrios Pantazis     : SARC Basis sets
   Taras Petrenko         : DFT Hessian,TD-DFT gradient, ASA, ECA, R-Raman, ABS, FL, XAS/XES, NRVS
   Peter Pinski           : DLPNO-MP2, DLPNO-MP2 Gradient
   Christoph Reimann      : Effective Core Potentials
   Marius Retegan         : Local ZFS, SOC
   Christoph Riplinger    : Optimizer, TS searches, QM/MM, DLPNO-CCSD(T), (RO)-DLPNO pert. Triples
   Tobias Risthaus        : Range-separated hybrids, TD-DFT gradient, RPA, STAB
   Michael Roemelt        : Original ROCIS implementation
   Masaaki Saitow         : Open-shell DLPNO-CCSD energy and density
   Barbara Sandhoefer     : DKH picture change effects
   Avijit Sen             : IP-ROCIS
   Kantharuban Sivalingam : CASSCF convergence, NEVPT2, FIC-MRCI
   Bernardo de Souza      : ESD, SOC TD-DFT
   Georgi Stoychev        : AutoAux, RI-MP2 NMR
   Willem Van den Heuvel  : Paramagnetic NMR
   Boris Wezisla          : Elementary symmetry handling
   Frank Wennmohs         : Technical directorship


 We gratefully acknowledge several colleagues who have allowed us to
 interface, adapt or use parts of their codes:
   Stefan Grimme, W. Hujo, H. Kruse,             : VdW corrections, initial TS optimization,
                  C. Bannwarth                     DFT functionals, gCP, sTDA/sTD-DF
   Ed Valeev, F. Pavosevic, A. Kumar             : LibInt (2-el integral package), F12 methods
   Garnet Chan, S. Sharma, J. Yang, R. Olivares  : DMRG
   Ulf Ekstrom                                   : XCFun DFT Library
   Mihaly Kallay                                 : mrcc  (arbitrary order and MRCC methods)
   Andreas Klamt, Michael Diedenhofen            : otool_cosmo (COSMO solvation model)
   Jiri Pittner, Ondrej Demel                    : Mk-CCSD
   Frank Weinhold                                : gennbo (NPA and NBO analysis)
   Christopher J. Cramer and Donald G. Truhlar   : smd solvation model
   Lars Goerigk                                  : TD-DFT with DH, B97 family of functionals
   V. Asgeirsson, H. Jonsson                     : NEB implementation
   FAccTs GmbH                                   : IRC, NEB, NEB-TS, Multilevel, MM, QM/MM, CI optimization
   S Lehtola, MJT Oliveira, MAL Marques          : LibXC Library


 Your calculation uses the libint2 library for the computation of 2-el integrals
 For citations please refer to: http://libint.valeyev.net

 Your ORCA version has been built with support for libXC version: 4.2.3
 For citations please refer to: https://tddft.org/programs/libxc/

 This ORCA versions uses:
   CBLAS   interface :  Fast vector & matrix operations
   LAPACKE interface :  Fast linear algebra routines
   SCALAPACK package :  Parallel linear algebra routines


Your calculation utilizes the atom-pairwise dispersion correction
with the Becke-Johnson damping scheme (D3BJ)
Cite in your paper:
S.Grimme, S.Ehrlich, L.Goerigk, J Comput Chem, (2011), 32, 1456–1465 
S.Grimme, J.Antony, S.Ehrlich and H.Krieg, J.Chem.Phys., 132, (2010), 154104 
   

----- Orbital basis set information -----
Your calculation utilizes the basis: def2-TZVPPD
   F. Weigend and R. Ahlrichs, Phys. Chem. Chem. Phys. 7, 3297 (2005).
   D. Rappoport and F. Furche, J. Chem. Phys. 133 134105 (2010).

----- AuxC basis set information -----
Your calculation utilizes the auxiliary basis: def2-TZVPPD/C
   A. Hellweg, C. Hattig, S. Hofener and W. Klopper, Theor. Chem. Acc. 117, 587 (2007).

----- AuxJK basis set information -----
Your calculation utilizes the auxiliary basis: def2/JK
   H-Ba, Hf-Rn: F. Weigend, J. Comput. Chem. 29, 167 (2008).

================================================================================
                                        WARNINGS
                       Please study these warnings very carefully!
================================================================================


WARNING: No MP2 level density has been requested!
         To caclulate MP2 level properties use
         %mp2 Density relaxed end
         or
         %mp2 Density unrelaxed end
         Otherwise for double-hybrid DFT only the energy is correct!

WARNING: There are different parametrizations of Gershom Martin's DSD-DFs
         for use with and without D3(BJ)!
         You are using the D3(BJ) parametrized version,
         consistent with the 2013 article (S. Kozuch and J. M. L. Martin, JCC 2013, 34, 2327)

WARNING: The frozen-core approximation is turned on by default for 
         the MP2 part of double-hybrid DFT.

INFO   : the flag for use of LIBINT has been found!

================================================================================
                                       INPUT FILE
================================================================================
NAME = 138.in
|  1> #
|  2> # 138 ri-DSD-BLYP/2013-D3BJ/Def2-TZVPPD
|  3> #
|  4> ! rijk ri-dsd-blyp/2013 d3bj def2-tzvppd def2/jk def2-tzvppd/c grid4 nofinalgrid
|  5> 
|  6> *xyz 0 1
|  7> H          0.64849       -1.47778       -0.13722
|  8> H         -0.62659       -0.18590       -3.09890
|  9> H         -0.40094       -0.71477       -2.61128
| 10> H          0.74472        0.82794        2.20080
| 11> H          0.41684       -1.04544        0.48242
| 12> H         -0.86873        0.85706        2.13389
| 13> Na         0.12711        1.09566       -0.53418
| 14> N         -0.04090        0.64323        1.56447
| 15> *
| 16> 
| 17> %maxcore 5000
| 18> 
| 19> %pal
| 20> nprocs = 24
| 21> end
| 22> 
| 23> 
| 24>                          ****END OF INPUT****
================================================================================

                       ****************************
                       * Single Point Calculation *
                       ****************************

---------------------------------
CARTESIAN COORDINATES (ANGSTROEM)
---------------------------------
  H      0.648490   -1.477780   -0.137220
  H     -0.626590   -0.185900   -3.098900
  H     -0.400940   -0.714770   -2.611280
  H      0.744720    0.827940    2.200800
  H      0.416840   -1.045440    0.482420
  H     -0.868730    0.857060    2.133890
  Na     0.127110    1.095660   -0.534180
  N     -0.040900    0.643230    1.564470

----------------------------
CARTESIAN COORDINATES (A.U.)
----------------------------
  NO LB      ZA    FRAG     MASS         X           Y           Z
   0 H     1.0000    0     1.008    1.225469   -2.792599   -0.259308
   1 H     1.0000    0     1.008   -1.184083   -0.351300   -5.856072
   2 H     1.0000    0     1.008   -0.757667   -1.350720   -4.934604
   3 H     1.0000    0     1.008    1.407317    1.564580    4.158909
   4 H     1.0000    0     1.008    0.787713   -1.975595    0.911642
   5 H     1.0000    0     1.008   -1.641662    1.619609    4.032468
   6 Na   11.0000    0    22.990    0.240203    2.070497   -1.009454
   7 N     7.0000    0    14.007   -0.077290    1.215529    2.956420

--------------------------------
INTERNAL COORDINATES (ANGSTROEM)
--------------------------------
 H      0   0   0     0.000000000000     0.00000000     0.00000000
 H      1   0   0     3.473662528686     0.00000000     0.00000000
 H      2   1   0     0.753919534035    22.74911369     0.00000000
 H      1   2   3     3.285109199357   110.88703965   192.97066018
 H      1   2   3     0.790274210448   110.94410563   215.49760303
 H      4   1   2     1.615099323571    87.35815731    65.14463003
 Na     5   1   2     2.387829190478   101.08689608   332.07028859
 N      6   4   1     1.027260879329    38.20269716   333.56997625

---------------------------
INTERNAL COORDINATES (A.U.)
---------------------------
 H      0   0   0     0.000000000000     0.00000000     0.00000000
 H      1   0   0     6.564270860882     0.00000000     0.00000000
 H      2   1   0     1.424701446340    22.74911369     0.00000000
 H      1   2   3     6.207956706810   110.88703965   192.97066018
 H      1   2   3     1.493401828449   110.94410563   215.49760303
 H      4   1   2     3.052095400631    87.35815731    65.14463003
 Na     5   1   2     4.512343224587   101.08689608   332.07028859
 N      6   4   1     1.941241730023    38.20269716   333.56997625

---------------------
BASIS SET INFORMATION
---------------------
There are 3 groups of distinct atoms

 Group   1 Type H   : 5s3p1d contracted to 3s3p1d pattern {311/111/1}
 Group   2 Type Na  : 14s9p3d contracted to 5s5p3d pattern {73211/51111/111}
 Group   3 Type N   : 12s6p3d1f contracted to 6s3p3d1f pattern {621111/411/111/1}

Atom   0H    basis set group =>   1
Atom   1H    basis set group =>   1
Atom   2H    basis set group =>   1
Atom   3H    basis set group =>   1
Atom   4H    basis set group =>   1
Atom   5H    basis set group =>   1
Atom   6Na   basis set group =>   2
Atom   7N    basis set group =>   3
---------------------------------
AUXILIARY/C BASIS SET INFORMATION
---------------------------------
There are 3 groups of distinct atoms

 Group   1 Type H   : 5s4p3d1f contracted to 5s4p3d1f pattern {11111/1111/111/1}
 Group   2 Type Na  : 11s9p7d5f contracted to 11s9p7d5f pattern {11111111111/111111111/1111111/11111}
 Group   3 Type N   : 9s7p6d4f1g contracted to 9s7p5d4f1g pattern {111111111/1111111/21111/1111/1}

Atom   0H    basis set group =>   1
Atom   1H    basis set group =>   1
Atom   2H    basis set group =>   1
Atom   3H    basis set group =>   1
Atom   4H    basis set group =>   1
Atom   5H    basis set group =>   1
Atom   6Na   basis set group =>   2
Atom   7N    basis set group =>   3
----------------------------------
AUXILIARY/JK BASIS SET INFORMATION
----------------------------------
There are 3 groups of distinct atoms

 Group   1 Type H   : 4s2p2d contracted to 2s2p2d pattern {31/11/11}
 Group   2 Type Na  : 16s12p9d4f1g contracted to 13s9p7d4f1g pattern {4111111111111/411111111/3111111/1111/1}
 Group   3 Type N   : 14s10p6d2f1g contracted to 10s8p4d2f1g pattern {5111111111/31111111/3111/11/1}

Atom   0H    basis set group =>   1
Atom   1H    basis set group =>   1
Atom   2H    basis set group =>   1
Atom   3H    basis set group =>   1
Atom   4H    basis set group =>   1
Atom   5H    basis set group =>   1
Atom   6Na   basis set group =>   2
Atom   7N    basis set group =>   3


           ************************************************************
           *        Program running with 24 parallel MPI-processes    *
           *              working on a common directory               *
           ************************************************************
------------------------------------------------------------------------------
                           ORCA GTO INTEGRAL CALCULATION
                           -- RI-GTO INTEGRALS CHOSEN --
------------------------------------------------------------------------------

                         BASIS SET STATISTICS AND STARTUP INFO

Gaussian basis set:
 # of primitive gaussian shells          ...  102
 # of primitive gaussian functions       ...  222
 # of contracted shells                  ...   68
 # of contracted basis functions         ...  174
 Highest angular momentum                ...    3
 Maximum contraction depth               ...    7
Auxiliary gaussian basis set:
 # of primitive gaussian shells          ...  123
 # of primitive gaussian functions       ...  351
 # of contracted shells                  ...   95
 # of contracted aux-basis functions     ...  297
 Highest angular momentum                ...    4
 Maximum contraction depth               ...    5
Ratio of auxiliary to basis functions    ...  1.71
Integral package used                  ... LIBINT
 One Electron integrals                  ... done
 Ordering auxiliary basis shells         ... done
 Integral threshhold             Thresh  ...  1.000e-10
 Primitive cut-off               TCut    ...  1.000e-11
 Pre-screening matrix                    ... done
 Shell pair data                         ... 
 Ordering of the shell pairs             ... done (   0.001 sec) 2238 of 2346 pairs
 Determination of significant pairs      ... done (   0.000 sec)
 Creation of shell pair data             ... done (   0.000 sec)
 Storage of shell pair data              ... done (   0.014 sec)
 Shell pair data done in (   0.015 sec)
 Computing two index integrals           ... done
 Cholesky decomposition of the V-matrix  ... done


Timings:
 Total evaluation time                   ...   0.224 sec (  0.004 min)
 One electron matrix time                ...   0.027 sec (  0.000 min) = 12.1%
 Schwartz matrix evaluation time         ...   0.152 sec (  0.003 min) = 67.8%
 Two index repulsion integral time       ...   0.002 sec (  0.000 min) =  0.9%
 Cholesky decomposition of V             ...   0.002 sec (  0.000 min) =  0.9%
 Three index repulsion integral time     ...   0.000 sec (  0.000 min) =  0.0%



           ************************************************************
           *        Program running with 24 parallel MPI-processes    *
           *              working on a common directory               *
           ************************************************************
-------------------------------------------------------------------------------
                                 ORCA SCF
-------------------------------------------------------------------------------

------------
SCF SETTINGS
------------
Hamiltonian:
 Density Functional     Method          .... DFT(GTOs)
 Exchange Functional    Exchange        .... B88
   X-Alpha parameter    XAlpha          ....  0.666667
   Becke's b parameter  XBeta           ....  0.004200
 Correlation Functional Correlation     .... LYP
 LDA part of GGA corr.  LDAOpt          .... VWN-5
 Gradients option       PostSCFGGA      .... off
 Hybrid DFT is turned on
   Fraction HF Exchange ScalHFX         ....  0.710000
   Scaling of DF-GGA-X  ScalDFX         ....  0.290000
   Scaling of DF-GGA-C  ScalDFC         ....  0.540000
   Scaling of DF-LDA-C  ScalLDAC        ....  0.540000
   Perturbative correction              ....  1.000000
   Density functional embedding theory  .... OFF
 RI-approximation to the Coulomb term is turned on
   Number of auxiliary basis functions  .... 297
   RI-JK (J+K treated both via RI)      .... on


General Settings:
 Integral files         IntName         .... 138
 Hartree-Fock type      HFTyp           .... RHF
 Total Charge           Charge          ....    0
 Multiplicity           Mult            ....    1
 Number of Electrons    NEL             ....   24
 Basis Dimension        Dim             ....  174
 Nuclear Repulsion      ENuc            ....     47.0888366337 Eh

Convergence Acceleration:
 DIIS                   CNVDIIS         .... on
   Start iteration      DIISMaxIt       ....    12
   Startup error        DIISStart       ....  0.200000
   # of expansion vecs  DIISMaxEq       ....     5
   Bias factor          DIISBfac        ....   1.050
   Max. coefficient     DIISMaxC        ....  10.000
 Newton-Raphson         CNVNR           .... off
 SOSCF                  CNVSOSCF        .... on
   Start iteration      SOSCFMaxIt      ....   150
   Startup grad/error   SOSCFStart      ....  0.003300
 Level Shifting         CNVShift        .... on
   Level shift para.    LevelShift      ....    0.2500
   Turn off err/grad.   ShiftErr        ....    0.0010
 Zerner damping         CNVZerner       .... off
 Static damping         CNVDamp         .... on
   Fraction old density DampFac         ....    0.7000
   Max. Damping (<1)    DampMax         ....    0.9800
   Min. Damping (>=0)   DampMin         ....    0.0000
   Turn off err/grad.   DampErr         ....    0.1000
 Fernandez-Rico         CNVRico         .... off

SCF Procedure:
 Maximum # iterations   MaxIter         ....   125
 SCF integral mode      SCFMode         .... Direct
   Integral package                     .... LIBINT
 Reset frequency        DirectResetFreq ....    20
 Integral Threshold     Thresh          ....  1.000e-10 Eh
 Primitive CutOff       TCut            ....  1.000e-11 Eh

Convergence Tolerance:
 Convergence Check Mode ConvCheckMode   .... Total+1el-Energy
 Convergence forced     ConvForced      .... 0
 Energy Change          TolE            ....  1.000e-06 Eh
 1-El. energy change                    ....  1.000e-03 Eh
 Orbital Gradient       TolG            ....  5.000e-05
 Orbital Rotation angle TolX            ....  5.000e-05
 DIIS Error             TolErr          ....  1.000e-06


Diagonalization of the overlap matrix:
Smallest eigenvalue                        ... 6.521e-05
Time for diagonalization                   ...    0.006 sec
Threshold for overlap eigenvalues          ... 1.000e-08
Number of eigenvalues below threshold      ... 0
Time for construction of square roots      ...    0.003 sec
Total time needed                          ...    0.010 sec

-------------------
DFT GRID GENERATION
-------------------

General Integration Accuracy     IntAcc      ...  4.670
Radial Grid Type                 RadialGrid  ... Gauss-Chebyshev
Angular Grid (max. acc.)         AngularGrid ... Lebedev-302
Angular grid pruning method      GridPruning ... 3 (G Style)
Weight generation scheme         WeightScheme... Becke
Basis function cutoff            BFCut       ...    1.0000e-10
Integration weight cutoff        WCut        ...    1.0000e-14
Grids for H and He will be reduced by one unit

# of grid points (after initial pruning)     ...  33110 (   0.0 sec)
# of grid points (after weights+screening)   ...  31917 (   0.0 sec)
nearest neighbour list constructed           ...    0.0 sec
Grid point re-assignment to atoms done       ...    0.0 sec
Grid point division into batches done        ...    0.1 sec
Reduced shell lists constructed in    0.1 sec

Total number of grid points                  ...    31917
Total number of batches                      ...      502
Average number of points per batch           ...       63
Average number of grid points per atom       ...     3990
Average number of shells per batch           ...    32.36 (47.59%)
Average number of basis functions per batch  ...    76.55 (43.99%)
Average number of large shells per batch     ...    24.32 (75.14%)
Average number of large basis fcns per batch ...    57.05 (74.52%)
Average number of aux-shells per batch       ...    32.36 (34.07%)
Average number of aux functions per batch    ...    76.55 (25.77%)
Maximum spatial batch extension              ...  22.21, 20.02, 14.73 au
Average spatial batch extension              ...   0.38,  0.37,  0.30 au

Time for grid setup =    0.230 sec

------------------------------
INITIAL GUESS: MODEL POTENTIAL
------------------------------
Loading Hartree-Fock densities                     ... done
Calculating cut-offs                               ... done
Setting up the integral package                    ... done
Initializing the effective Hamiltonian             ... done
Starting the Coulomb interaction                   ... done (   0.0 sec)
Reading the grid                                   ... done
Mapping shells                                     ... done
Starting the XC term evaluation                    ... done (   0.0 sec)
  promolecular density results
     # of electrons  =     23.997056786
     EX              =    -22.282330840
     EC              =     -0.072978503
     EX+EC           =    -22.355309343
Transforming the Hamiltonian                       ... done (   0.0 sec)
Diagonalizing the Hamiltonian                      ... done (   0.0 sec)
Back transforming the eigenvectors                 ... done (   0.0 sec)
Now organizing SCF variables                       ... done
                      ------------------
                      INITIAL GUESS DONE (   0.3 sec)
                      ------------------
--------------
SCF ITERATIONS
--------------
ITER       Energy         Delta-E        Max-DP      RMS-DP      [F,P]     Damp
  0   -219.9074989223   0.000000000000 0.07229541  0.00157180  0.4765945 0.7000
  1   -219.8427564444   0.064742477936 0.12364373  0.00226864  0.4092934 0.7000
                               ***Turning on DIIS***
  2   -219.8773187271  -0.034562282724 0.11959005  0.00186839  0.1849498 0.7000
  3   -219.9754397126  -0.098120985521 0.14950573  0.00267347  0.0478040 0.0000
  4   -220.1402755725  -0.164835859936 0.03664477  0.00049152  0.1605615 0.7000
  5   -220.1654808213  -0.025205248762 0.04571331  0.00061874  0.1573292 0.7000
  6   -220.1753434102  -0.009862588867 0.04426538  0.00060570  0.1371262 0.7000
  7   -220.1799343964  -0.004590986240 0.04169139  0.00058430  0.1151287 0.7000
  8   -220.1865686035  -0.006634207125 0.14072104  0.00204432  0.0928824 0.0000
  9   -220.1729898511   0.013578752388 0.00544261  0.00011315  0.0271289 0.0000
 10   -220.1735591414  -0.000569290217 0.00443028  0.00009290  0.0111562 0.0000
 11   -220.1736686210  -0.000109479688 0.00363365  0.00006786  0.0049532 0.0000
                      *** Initiating the SOSCF procedure ***
                           *** Shutting down DIIS ***
                      *** Re-Reading the Fockian *** 
                      *** Removing any level shift *** 
ITER      Energy       Delta-E        Grad      Rot      Max-DP    RMS-DP
 12   -220.17369374  -0.0000251184  0.000397  0.000397  0.002688  0.000048
 13   -220.17370107  -0.0000073296  0.000289  0.001237  0.003706  0.000064
 14   -220.17370368  -0.0000026147  0.000246  0.000562  0.001178  0.000025
 15   -220.17370521  -0.0000015254  0.000064  0.000173  0.000321  0.000006
                 **** Energy Check signals convergence ****
              ***Rediagonalizing the Fockian in SOSCF/NRSCF***

               *****************************************************
               *                     SUCCESS                       *
               *           SCF CONVERGED AFTER  16 CYCLES          *
               *****************************************************


----------------
TOTAL SCF ENERGY
----------------

Total Energy       :         -220.17370528 Eh           -5991.23111 eV

Components:
Nuclear Repulsion  :           47.08883663 Eh            1281.35239 eV
Electronic Energy  :         -267.26254192 Eh           -7272.58350 eV
One Electron Energy:         -400.67609379 Eh          -10902.95081 eV
Two Electron Energy:          133.41355187 Eh            3630.36731 eV

Virial components:
Potential Energy   :         -439.75071540 Eh          -11966.22532 eV
Kinetic Energy     :          219.57701011 Eh            5974.99421 eV
Virial Ratio       :            2.00271748


DFT components:
N(Alpha)           :       11.999989280184 electrons
N(Beta)            :       11.999989280184 electrons
N(Total)           :       23.999978560368 electrons
E(X)               :       -6.589904707609 Eh       
E(C)               :       -0.434556103377 Eh       
E(XC)              :       -7.024460810986 Eh       
DFET-embed. en.    :        0.000000000000 Eh       

---------------
SCF CONVERGENCE
---------------

  Last Energy change         ...   -7.3803e-08  Tolerance :   1.0000e-06
  Last MAX-Density change    ...    1.8484e-04  Tolerance :   1.0000e-05
  Last RMS-Density change    ...    2.9353e-06  Tolerance :   1.0000e-06
  Last Orbital Gradient      ...    1.0386e-05  Tolerance :   5.0000e-05
  Last Orbital Rotation      ...    7.4289e-05  Tolerance :   5.0000e-05

             **** THE GBW FILE WAS UPDATED (138.gbw) ****
             **** DENSITY FILE WAS UPDATED (138.scfp) ****
             **** ENERGY FILE WAS UPDATED (138.en.tmp) ****
             **** THE GBW FILE WAS UPDATED (138.gbw) ****
             **** DENSITY FILE WAS UPDATED (138.scfp) ****
----------------
ORBITAL ENERGIES
----------------

  NO   OCC          E(Eh)            E(eV) 
   0   2.0000     -39.749691     -1081.6441 
   1   2.0000     -14.980004      -407.6266 
   2   2.0000      -2.578328       -70.1599 
   3   2.0000      -1.377783       -37.4914 
   4   2.0000      -1.377356       -37.4798 
   5   2.0000      -1.374945       -37.4141 
   6   2.0000      -0.877931       -23.8897 
   7   2.0000      -0.583338       -15.8734 
   8   2.0000      -0.504675       -13.7329 
   9   2.0000      -0.450128       -12.2486 
  10   2.0000      -0.322583        -8.7779 
  11   2.0000      -0.226903        -6.1743 
  12   0.0000      -0.011083        -0.3016 
  13   0.0000       0.013369         0.3638 
  14   0.0000       0.019346         0.5264 
  15   0.0000       0.027208         0.7404 
  16   0.0000       0.054330         1.4784 
  17   0.0000       0.057732         1.5710 
  18   0.0000       0.074019         2.0142 
  19   0.0000       0.083379         2.2689 
  20   0.0000       0.103928         2.8280 
  21   0.0000       0.136748         3.7211 
  22   0.0000       0.149093         4.0570 
  23   0.0000       0.167525         4.5586 
  24   0.0000       0.177851         4.8396 
  25   0.0000       0.185592         5.0502 
  26   0.0000       0.192275         5.2321 
  27   0.0000       0.196335         5.3425 
  28   0.0000       0.233418         6.3516 
  29   0.0000       0.240771         6.5517 
  30   0.0000       0.248568         6.7639 
  31   0.0000       0.256308         6.9745 
  32   0.0000       0.261780         7.1234 
  33   0.0000       0.274320         7.4646 
  34   0.0000       0.285683         7.7738 
  35   0.0000       0.293793         7.9945 
  36   0.0000       0.306274         8.3342 
  37   0.0000       0.311202         8.4682 
  38   0.0000       0.325780         8.8649 
  39   0.0000       0.333795         9.0830 
  40   0.0000       0.349018         9.4973 
  41   0.0000       0.360039         9.7971 
  42   0.0000       0.384532        10.4636 
  43   0.0000       0.404360        11.0032 
  44   0.0000       0.416276        11.3275 
  45   0.0000       0.426192        11.5973 
  46   0.0000       0.430647        11.7185 
  47   0.0000       0.440207        11.9786 
  48   0.0000       0.451817        12.2946 
  49   0.0000       0.499621        13.5954 
  50   0.0000       0.533949        14.5295 
  51   0.0000       0.543779        14.7970 
  52   0.0000       0.563509        15.3338 
  53   0.0000       0.577459        15.7135 
  54   0.0000       0.596287        16.2258 
  55   0.0000       0.613654        16.6984 
  56   0.0000       0.631291        17.1783 
  57   0.0000       0.653685        17.7877 
  58   0.0000       0.775736        21.1088 
  59   0.0000       0.820472        22.3262 
  60   0.0000       0.821381        22.3509 
  61   0.0000       0.841147        22.8888 
  62   0.0000       0.849740        23.1226 
  63   0.0000       0.865580        23.5536 
  64   0.0000       0.892457        24.2850 
  65   0.0000       0.927202        25.2304 
  66   0.0000       0.943557        25.6755 
  67   0.0000       0.989220        26.9181 
  68   0.0000       0.999393        27.1949 
  69   0.0000       1.031167        28.0595 
  70   0.0000       1.136271        30.9195 
  71   0.0000       1.154847        31.4250 
  72   0.0000       1.174086        31.9485 
  73   0.0000       1.179016        32.0826 
  74   0.0000       1.193953        32.4891 
  75   0.0000       1.202494        32.7215 
  76   0.0000       1.215362        33.0717 
  77   0.0000       1.232502        33.5381 
  78   0.0000       1.255685        34.1689 
  79   0.0000       1.270231        34.5647 
  80   0.0000       1.297605        35.3096 
  81   0.0000       1.324877        36.0517 
  82   0.0000       1.344111        36.5751 
  83   0.0000       1.389776        37.8177 
  84   0.0000       1.396879        38.0110 
  85   0.0000       1.442407        39.2499 
  86   0.0000       1.468420        39.9577 
  87   0.0000       1.506028        40.9811 
  88   0.0000       1.521088        41.3909 
  89   0.0000       1.560670        42.4680 
  90   0.0000       1.625162        44.2229 
  91   0.0000       1.710611        46.5481 
  92   0.0000       1.782876        48.5145 
  93   0.0000       1.887657        51.3658 
  94   0.0000       1.954757        53.1917 
  95   0.0000       2.001585        54.4659 
  96   0.0000       2.020626        54.9840 
  97   0.0000       2.488407        67.7130 
  98   0.0000       2.542185        69.1764 
  99   0.0000       2.632304        71.6286 
 100   0.0000       2.678898        72.8965 
 101   0.0000       2.694950        73.3333 
 102   0.0000       2.773110        75.4602 
 103   0.0000       2.810189        76.4691 
 104   0.0000       2.897913        78.8562 
 105   0.0000       3.044174        82.8362 
 106   0.0000       3.103017        84.4374 
 107   0.0000       3.142430        85.5099 
 108   0.0000       3.174757        86.3895 
 109   0.0000       3.182216        86.5925 
 110   0.0000       3.379554        91.9623 
 111   0.0000       3.397557        92.4522 
 112   0.0000       3.401805        92.5678 
 113   0.0000       3.426480        93.2392 
 114   0.0000       3.433738        93.4368 
 115   0.0000       3.487765        94.9069 
 116   0.0000       3.508557        95.4727 
 117   0.0000       3.596310        97.8606 
 118   0.0000       3.626636        98.6858 
 119   0.0000       3.680229       100.1441 
 120   0.0000       3.733627       101.5972 
 121   0.0000       3.849404       104.7476 
 122   0.0000       3.891627       105.8966 
 123   0.0000       3.917926       106.6122 
 124   0.0000       3.923577       106.7659 
 125   0.0000       3.929791       106.9351 
 126   0.0000       3.938690       107.1772 
 127   0.0000       3.974791       108.1596 
 128   0.0000       3.981792       108.3501 
 129   0.0000       4.000120       108.8488 
 130   0.0000       4.022544       109.4590 
 131   0.0000       4.045945       110.0957 
 132   0.0000       4.071673       110.7959 
 133   0.0000       4.077130       110.9444 
 134   0.0000       4.105303       111.7110 
 135   0.0000       4.131488       112.4235 
 136   0.0000       4.169965       113.4705 
 137   0.0000       4.208177       114.5103 
 138   0.0000       4.250417       115.6597 
 139   0.0000       4.267823       116.1334 
 140   0.0000       4.338686       118.0616 
 141   0.0000       4.359558       118.6296 
 142   0.0000       4.502444       122.5177 
 143   0.0000       4.619036       125.6904 
 144   0.0000       4.679851       127.3452 
 145   0.0000       4.687062       127.5414 
 146   0.0000       4.751319       129.2900 
 147   0.0000       4.925374       134.0262 
 148   0.0000       4.999306       136.0380 
 149   0.0000       5.182524       141.0236 
 150   0.0000       5.208311       141.7254 
 151   0.0000       5.270194       143.4093 
 152   0.0000       5.487931       149.3342 
 153   0.0000       5.517567       150.1406 
 154   0.0000       5.518104       150.1552 
 155   0.0000       5.570495       151.5809 
 156   0.0000       5.687769       154.7721 
 157   0.0000       5.710305       155.3853 
 158   0.0000       5.778136       157.2311 
 159   0.0000       5.805453       157.9744 
 160   0.0000       5.859349       159.4410 
 161   0.0000       6.008657       163.5039 
 162   0.0000       6.015922       163.7016 
 163   0.0000       6.032982       164.1658 
 164   0.0000       6.039667       164.3477 
 165   0.0000       6.057308       164.8277 
 166   0.0000       6.095471       165.8662 
 167   0.0000       6.168145       167.8438 
 168   0.0000       6.335814       172.4063 
 169   0.0000       6.860143       186.6740 
 170   0.0000       6.913298       188.1204 
 171   0.0000       6.925366       188.4488 
 172   0.0000       6.972865       189.7413 
 173   0.0000      33.369068       908.0185 

                    ********************************
                    * MULLIKEN POPULATION ANALYSIS *
                    ********************************

-----------------------
MULLIKEN ATOMIC CHARGES
-----------------------
   0 H :   -0.156697
   1 H :   -0.001509
   2 H :    0.014421
   3 H :   -0.015502
   4 H :    0.116290
   5 H :   -0.052610
   6 Na:    0.832168
   7 N :   -0.736559
Sum of atomic charges:    0.0000000

--------------------------------
MULLIKEN REDUCED ORBITAL CHARGES
--------------------------------
  0 H s       :     1.102348  s :     1.102348
      pz      :     0.029730  p :     0.054060
      px      :     0.004871
      py      :     0.019460
      dz2     :     0.000059  d :     0.000289
      dxz     :     0.000048
      dyz     :     0.000115
      dx2y2   :     0.000029
      dxy     :     0.000037
  1 H s       :     0.982226  s :     0.982226
      pz      :     0.010398  p :     0.019148
      px      :     0.002019
      py      :     0.006732
      dz2     :     0.000008  d :     0.000135
      dxz     :     0.000031
      dyz     :     0.000048
      dx2y2   :     0.000035
      dxy     :     0.000012
  2 H s       :     0.970552  s :     0.970552
      pz      :    -0.000987  p :     0.014867
      px      :     0.001084
      py      :     0.014770
      dz2     :     0.000004  d :     0.000161
      dxz     :     0.000033
      dyz     :     0.000050
      dx2y2   :     0.000057
      dxy     :     0.000017
  3 H s       :     0.835422  s :     0.835422
      pz      :     0.063888  p :     0.174966
      px      :     0.026385
      py      :     0.084693
      dz2     :     0.000972  d :     0.005115
      dxz     :     0.001264
      dyz     :     0.000645
      dx2y2   :     0.001009
      dxy     :     0.001224
  4 H s       :     0.761346  s :     0.761346
      pz      :     0.079834  p :     0.122192
      px      :     0.015375
      py      :     0.026983
      dz2     :     0.000071  d :     0.000173
      dxz     :     0.000022
      dyz     :    -0.000016
      dx2y2   :     0.000067
      dxy     :     0.000030
  5 H s       :     0.846507  s :     0.846507
      pz      :     0.070307  p :     0.200810
      px      :     0.029825
      py      :     0.100678
      dz2     :     0.000863  d :     0.005294
      dxz     :     0.001356
      dyz     :     0.000581
      dx2y2   :     0.001118
      dxy     :     0.001375
  6 Nas       :     4.079600  s :     4.079600
      pz      :     2.017831  p :     6.051113
      px      :     2.003480
      py      :     2.029803
      dz2     :     0.007758  d :     0.037118
      dxz     :     0.002775
      dyz     :     0.020300
      dx2y2   :     0.005603
      dxy     :     0.000682
  7 N s       :     3.537699  s :     3.537699
      pz      :     1.474412  p :     4.194611
      px      :     1.096148
      py      :     1.624051
      dz2     :    -0.001458  d :     0.003580
      dxz     :     0.003827
      dyz     :    -0.005427
      dx2y2   :     0.004547
      dxy     :     0.002091
      f0      :     0.000004  f :     0.000669
      f+1     :    -0.000006
      f-1     :     0.000043
      f+2     :     0.000300
      f-2     :     0.000045
      f+3     :     0.000166
      f-3     :     0.000116


                     *******************************
                     * LOEWDIN POPULATION ANALYSIS *
                     *******************************

----------------------
LOEWDIN ATOMIC CHARGES
----------------------
   0 H :    0.040299
   1 H :    0.048305
   2 H :    0.033861
   3 H :   -0.297808
   4 H :   -0.058252
   5 H :   -0.299206
   6 Na:    0.529471
   7 N :    0.003329

-------------------------------
LOEWDIN REDUCED ORBITAL CHARGES
-------------------------------
  0 H s       :     0.875640  s :     0.875640
      pz      :     0.041308  p :     0.079355
      px      :     0.007492
      py      :     0.030555
      dz2     :     0.000814  d :     0.004706
      dxz     :     0.000758
      dyz     :     0.002587
      dx2y2   :     0.000178
      dxy     :     0.000369
  1 H s       :     0.884283  s :     0.884283
      pz      :     0.028596  p :     0.061669
      px      :     0.005951
      py      :     0.027121
      dz2     :     0.000105  d :     0.005743
      dxz     :     0.000666
      dyz     :     0.003542
      dx2y2   :     0.000673
      dxy     :     0.000757
  2 H s       :     0.873285  s :     0.873285
      pz      :     0.042012  p :     0.087130
      px      :     0.008039
      py      :     0.037080
      dz2     :     0.000071  d :     0.005724
      dxz     :     0.000619
      dyz     :     0.003536
      dx2y2   :     0.000738
      dxy     :     0.000759
  3 H s       :     0.705510  s :     0.705510
      pz      :     0.189965  p :     0.534701
      px      :     0.151423
      py      :     0.193313
      dz2     :     0.013123  d :     0.057597
      dxz     :     0.014275
      dyz     :     0.008534
      dx2y2   :     0.008833
      dxy     :     0.012831
  4 H s       :     0.754913  s :     0.754913
      pz      :     0.138131  p :     0.297316
      px      :     0.028662
      py      :     0.130523
      dz2     :     0.001340  d :     0.006023
      dxz     :     0.000892
      dyz     :     0.002872
      dx2y2   :     0.000452
      dxy     :     0.000467
  5 H s       :     0.707240  s :     0.707240
      pz      :     0.183276  p :     0.534636
      px      :     0.155417
      py      :     0.195944
      dz2     :     0.011229  d :     0.057330
      dxz     :     0.015082
      dyz     :     0.006938
      dx2y2   :     0.009863
      dxy     :     0.014218
  6 Nas       :     4.038160  s :     4.038160
      pz      :     2.105465  p :     6.211918
      px      :     2.013702
      py      :     2.092751
      dz2     :     0.079657  d :     0.220451
      dxz     :     0.029101
      dyz     :     0.074716
      dx2y2   :     0.029744
      dxy     :     0.007233
  7 N s       :     3.052746  s :     3.052746
      pz      :     1.308481  p :     3.760118
      px      :     1.104154
      py      :     1.347482
      dz2     :     0.047200  d :     0.178329
      dxz     :     0.054183
      dyz     :     0.037370
      dx2y2   :     0.028144
      dxy     :     0.011433
      f0      :     0.000743  f :     0.005479
      f+1     :     0.001377
      f-1     :     0.000043
      f+2     :     0.001821
      f-2     :     0.000728
      f+3     :     0.000207
      f-3     :     0.000559


                      *****************************
                      * MAYER POPULATION ANALYSIS *
                      *****************************

  NA   - Mulliken gross atomic population
  ZA   - Total nuclear charge
  QA   - Mulliken gross atomic charge
  VA   - Mayer's total valence
  BVA  - Mayer's bonded valence
  FA   - Mayer's free valence

  ATOM       NA         ZA         QA         VA         BVA        FA
  0 H      1.1567     1.0000    -0.1567     1.1163     1.1163     0.0000
  1 H      1.0015     1.0000    -0.0015     0.9899     0.9899    -0.0000
  2 H      0.9856     1.0000     0.0144     0.9935     0.9935    -0.0000
  3 H      1.0155     1.0000    -0.0155     1.2847     1.2847     0.0000
  4 H      0.8837     1.0000     0.1163     1.0434     1.0434     0.0000
  5 H      1.0526     1.0000    -0.0526     1.3375     1.3375     0.0000
  6 Na    10.1678    11.0000     0.8322     0.3136     0.3136    -0.0000
  7 N      7.7366     7.0000    -0.7366     2.7682     2.7682     0.0000

  Mayer bond orders larger than 0.100000
B(  0-H ,  4-H ) :   1.0280 B(  1-H ,  2-H ) :   0.9909 B(  3-H ,  7-N ) :   1.2199 
B(  5-H ,  7-N ) :   1.2689 B(  6-Na,  7-N ) :   0.2275 

-------
TIMINGS
-------

Total SCF time: 0 days 0 hours 0 min 2 sec 

Total time                  ....       2.952 sec
Sum of individual times     ....       2.811 sec  ( 95.2%)

Fock matrix formation       ....       2.358 sec  ( 79.9%)
  XC integration            ....       0.394 sec  ( 16.7% of F)
    Basis function eval.    ....       0.083 sec  ( 21.2% of XC)
    Density eval.           ....       0.056 sec  ( 14.3% of XC)
    XC-Functional eval.     ....       0.020 sec  (  5.0% of XC)
    XC-Potential eval.      ....       0.100 sec  ( 25.4% of XC)
Diagonalization             ....       0.057 sec  (  1.9%)
Density matrix formation    ....       0.010 sec  (  0.4%)
Population analysis         ....       0.008 sec  (  0.3%)
Initial guess               ....       0.116 sec  (  3.9%)
Orbital Transformation      ....       0.000 sec  (  0.0%)
Orbital Orthonormalization  ....       0.000 sec  (  0.0%)
DIIS solution               ....       0.023 sec  (  0.8%)
SOSCF solution              ....       0.009 sec  (  0.3%)
Grid generation             ....       0.230 sec  (  7.8%)


           ************************************************************
           *        Program running with 24 parallel MPI-processes    *
           *              working on a common directory               *
           ************************************************************

------------------------------------------------------------------------------
                                ORCA  MP2 
------------------------------------------------------------------------------

Freezing NCore=4 chemical core electrons

-------------
RI-MP2 ENERGY
-------------
Dimension of the basis                    ...  174
Memory devoted to MP2                     ... 5000 MB   
Data format for buffers                   ... DOUBLE
Compression type for matrix containers    ... UNCOMPRESSED
Scaling for aa/bb pairs                   ...   4.000e-01
Scaling for ab pairs                      ...   4.700e-01
Overall scaling of the MP2 energy         ...   1.000e+00
Calculating two index integrals           ... done (    0.002 sec)
Cholesky decomposition of V**-1           ... done (    0.017 sec)

-----------------
RI-TRANSFORMATION (AUX index driven)
-----------------

Dimension of the orbital-basis         ... 174
Dimension of the aux-basis             ... 434
Transformation of internal/external MOs...    2-  11 to   12- 173
Number Format for Storage              ... Double (8 Byte)
Integral mode                          ... Direct

First Phase: integral generation and transformation of MO indices
  Aux angular momentum 0               ... done (    0.003 sec)
  Aux angular momentum 1               ... done (    0.003 sec)
  Aux angular momentum 2               ... done (    0.004 sec)
  Aux angular momentum 3               ... done (    0.003 sec)
  Aux angular momentum 4               ... done (    0.004 sec)
Closing buffer VIA ( 0.01 GB; CompressionRatio= 1.00)
  Phase 1 completed in     0.118 sec
Second Phase: sorting and transformation of aux index

IA-Transformation
Memory available                       ... 4997 MB 
Max. # MO pairs treated in a batch     ... 1    
# of internal orbitals                 ... 10
# batches for internal orbitals        ... 1
Closing buffer IAV ( 0.00 GB; CompressionRatio= 1.00)
(ia|v) transformation done in     0.005 sec

  Phase 2 completed in     0.012 sec
RI-Integral transformation completed in     0.131 sec
Opening buffers                              ... done

Starting loop over batches of integrals:

Operator 0  - window                       ... (  2- 11)x( 12-173)
Operator 0  - Memory available             ...  5000 MB
Operator 0  - Memory needed per MO         ...   0.5 MB
Operator 0  - Number of orbitals per batch ... 1
Operator 0  - Number of batches            ... 1

OPERATOR  0   PASS   0:  MOs     2 ...    2 +    3 ...    3 +    4 ...    4 +    5 ...    5
                            +    6 ...    6 +    7 ...    7 +    8 ...    8 +    9 ...    9
                            +   10 ...   10 +   11 ...   11
  Reading integrals       ... ok
Time spent in pair loops =     0.002 sec
Deleting buffer (Ka|jb)[aa] ...done

-----------------------------------------------
 RI-MP2 CORRELATION ENERGY:     -0.242248335 Eh
-----------------------------------------------


-------
TIMINGS
-------

Total time                :    0.174 sec
Integral trafo            :    0.144 sec ( 83.1%)
I/O of integrals          :    0.000 sec (  0.3%)
K(i,j) Operators          :    0.000 sec (  0.3%)
T(i,j) pair energies      :    0.000 sec (  0.1%)
V-calculation             :    0.002 sec (  1.1%)
V**(-1/2)                 :    0.017 sec ( 10.0%)
Gamma(ia|P)               :    0.000 sec (  0.0%)
Gamma-Trafo               :    0.000 sec (  0.0%)
D(virtual)                :    0.000 sec (  0.0%)
D(internal)               :    0.000 sec (  0.0%)
W(virtual)                :    0.000 sec (  0.0%)
W(internal)               :    0.000 sec (  0.0%)
L(virtual)                :    0.000 sec (  0.0%)
L(internal)               :    0.000 sec (  0.0%)
G(D)                      :    0.000 sec (  0.0%)
G(Z)                      :    0.000 sec (  0.0%)
Z-Vector Solution         :    0.000 sec (  0.0%)
Z-Vector Solution         :    0.000 sec (  0.0%)
3-Index Derivative 
+ Separable RIJ part      :    0.000 sec (  0.0%)
2-Index Derivative 
+ Separable RIJ part      :    0.000 sec (  0.0%)
Separable Gradient (X)    :    0.000 sec (  0.0%)


---------------------------------------
MP2 TOTAL ENERGY:     -220.415953617 Eh
---------------------------------------


-------------------------------------------------------------------------------
                          DFT DISPERSION CORRECTION                            
                                                                               
                              DFTD3 V3.1  Rev 1                                
                          USING Becke-Johnson damping                          
-------------------------------------------------------------------------------
The DSD-BLYP/2013 functional is recognized
Active option DFTDOPT                   ...         4   

molecular C6(AA) [au] = 738.582081 


            DFT-D V3
 parameters
 s6 scaling factor         :     0.5700 
 a1 scaling factor         :     0.0000 
 s8 scaling factor         :     0.0000 
 a2 scaling factor         :     5.4000 
 ad hoc parameters k1-k3   :    16.0000     1.3333    -4.0000 

 Edisp/kcal,au: -2.178327331834  -0.003471385197 
 E6   /kcal   :  -2.178327332 
 E8   /kcal   :  -0.000000000 
 % E8         :   0.000000000 

-------------------------   ----------------
Dispersion correction           -0.003471385
-------------------------   ----------------


-------------------------   --------------------
FINAL SINGLE POINT ENERGY      -220.419425002689
-------------------------   --------------------


                            ***************************************
                            *     ORCA property calculations      *
                            ***************************************


  WARNING: The energy has been calculated at the MP2 level but the densities
           used in the property calculations are still SCF densities
           MP2 response densities have not been calculated 
           use %mp2 Density relaxed end
           or  %mp2 Density unrelaxed end

                                    ---------------------
                                    Active property flags
                                    ---------------------
   (+) Dipole Moment


------------------------------------------------------------------------------
                       ORCA ELECTRIC PROPERTIES CALCULATION
------------------------------------------------------------------------------

Dipole Moment Calculation                       ... on
Quadrupole Moment Calculation                   ... off
Polarizability Calculation                      ... off
GBWName                                         ... 138.gbw
Electron density file                           ... 138.scfp
The origin for moment calculation is the CENTER OF MASS  = ( 0.099325,  1.424424  0.377296)

-------------
DIPOLE MOMENT
-------------
                                X             Y             Z
Electronic contribution:      0.55840       7.04194      -1.07194
Nuclear contribution   :     -0.44551      -6.18803      -1.41111
                        -----------------------------------------
Total Dipole Moment    :      0.11289       0.85391      -2.48305
                        -----------------------------------------
Magnitude (a.u.)       :      2.62820
Magnitude (Debye)      :      6.68035



--------------------
Rotational spectrum 
--------------------
 
Rotational constants in cm-1:     0.993150     0.247328     0.211706 
Rotational constants in MHz : 29773.882147  7414.712908  6346.774487 

 Dipole components along the rotational axes: 
x,y,z [a.u.] :    -2.483046     0.853911    -0.112895 
x,y,z [Debye]:    -6.311402     2.170468    -0.286957 

 

Timings for individual modules:

Sum of individual times         ...        4.800 sec (=   0.080 min)
GTO integral calculation        ...        0.701 sec (=   0.012 min)  14.6 %
SCF iterations                  ...        3.367 sec (=   0.056 min)  70.1 %
MP2 module                      ...        0.733 sec (=   0.012 min)  15.3 %
                             ****ORCA TERMINATED NORMALLY****
TOTAL RUN TIME: 0 days 0 hours 0 minutes 5 seconds 411 msec
