
                                 *****************
                                 * O   R   C   A *
                                 *****************

           --- An Ab Initio, DFT and Semiempirical electronic structure package ---

                  #######################################################
                  #                        -***-                        #
                  #          Department of theory and spectroscopy      #
                  #               Directorship: Frank Neese             #
                  #        Max Planck Institute fuer Kohlenforschung    #
                  #                Kaiser Wilhelm Platz 1               #
                  #                 D-45470 Muelheim/Ruhr               #
                  #                      Germany                        #
                  #                                                     #
                  #                  All rights reserved                #
                  #                        -***-                        #
                  #######################################################


                         Program Version 4.2.0 -  RELEASE  -


 With contributions from (in alphabetic order):
   Daniel Aravena         : Magnetic Suceptibility
   Michael Atanasov       : Ab Initio Ligand Field Theory (pilot matlab implementation)
   Alexander A. Auer      : GIAO ZORA, VPT2
   Ute Becker             : Parallelization
   Giovanni Bistoni       : ED, misc. LED, open-shell LED, HFLED
   Martin Brehm           : Molecular dynamics
   Dmytro Bykov           : SCF Hessian
   Vijay G. Chilkuri      : MRCI spin determinant printing, contributions to CSF-ICE
   Dipayan Datta          : RHF DLPNO-CCSD density
   Achintya Kumar Dutta   : EOM-CC, STEOM-CC
   Dmitry Ganyushin       : Spin-Orbit,Spin-Spin,Magnetic field MRCI
   Miquel Garcia          : C-PCM Hessian, Gaussian charge scheme
   Yang Guo               : DLPNO-NEVPT2, CIM, IAO-localization
   Andreas Hansen         : Spin unrestricted coupled pair/coupled cluster methods
   Benjamin Helmich-Paris : CASSCF linear response (MC-RPA)
   Lee Huntington         : MR-EOM, pCC
   Robert Izsak           : Overlap fitted RIJCOSX, COSX-SCS-MP3, EOM
   Christian Kollmar      : KDIIS, OOCD, Brueckner-CCSD(T), CCSD density
   Simone Kossmann        : Meta GGA functionals, TD-DFT gradient, OOMP2, MP2 Hessian
   Martin Krupicka        : AUTO-CI
   Lucas Lang             : DCDCAS
   Dagmar Lenk            : GEPOL surface, SMD
   Dimitrios Liakos       : Extrapolation schemes; Compound Job, initial MDCI parallelization
   Dimitrios Manganas     : Further ROCIS development; embedding schemes
   Dimitrios Pantazis     : SARC Basis sets
   Taras Petrenko         : DFT Hessian,TD-DFT gradient, ASA, ECA, R-Raman, ABS, FL, XAS/XES, NRVS
   Peter Pinski           : DLPNO-MP2, DLPNO-MP2 Gradient
   Christoph Reimann      : Effective Core Potentials
   Marius Retegan         : Local ZFS, SOC
   Christoph Riplinger    : Optimizer, TS searches, QM/MM, DLPNO-CCSD(T), (RO)-DLPNO pert. Triples
   Tobias Risthaus        : Range-separated hybrids, TD-DFT gradient, RPA, STAB
   Michael Roemelt        : Original ROCIS implementation
   Masaaki Saitow         : Open-shell DLPNO-CCSD energy and density
   Barbara Sandhoefer     : DKH picture change effects
   Avijit Sen             : IP-ROCIS
   Kantharuban Sivalingam : CASSCF convergence, NEVPT2, FIC-MRCI
   Bernardo de Souza      : ESD, SOC TD-DFT
   Georgi Stoychev        : AutoAux, RI-MP2 NMR
   Willem Van den Heuvel  : Paramagnetic NMR
   Boris Wezisla          : Elementary symmetry handling
   Frank Wennmohs         : Technical directorship


 We gratefully acknowledge several colleagues who have allowed us to
 interface, adapt or use parts of their codes:
   Stefan Grimme, W. Hujo, H. Kruse,             : VdW corrections, initial TS optimization,
                  C. Bannwarth                     DFT functionals, gCP, sTDA/sTD-DF
   Ed Valeev, F. Pavosevic, A. Kumar             : LibInt (2-el integral package), F12 methods
   Garnet Chan, S. Sharma, J. Yang, R. Olivares  : DMRG
   Ulf Ekstrom                                   : XCFun DFT Library
   Mihaly Kallay                                 : mrcc  (arbitrary order and MRCC methods)
   Andreas Klamt, Michael Diedenhofen            : otool_cosmo (COSMO solvation model)
   Jiri Pittner, Ondrej Demel                    : Mk-CCSD
   Frank Weinhold                                : gennbo (NPA and NBO analysis)
   Christopher J. Cramer and Donald G. Truhlar   : smd solvation model
   Lars Goerigk                                  : TD-DFT with DH, B97 family of functionals
   V. Asgeirsson, H. Jonsson                     : NEB implementation
   FAccTs GmbH                                   : IRC, NEB, NEB-TS, Multilevel, MM, QM/MM, CI optimization
   S Lehtola, MJT Oliveira, MAL Marques          : LibXC Library


 Your calculation uses the libint2 library for the computation of 2-el integrals
 For citations please refer to: http://libint.valeyev.net

 Your ORCA version has been built with support for libXC version: 4.2.3
 For citations please refer to: https://tddft.org/programs/libxc/

 This ORCA versions uses:
   CBLAS   interface :  Fast vector & matrix operations
   LAPACKE interface :  Fast linear algebra routines
   SCALAPACK package :  Parallel linear algebra routines


Your calculation utilizes the atom-pairwise dispersion correction
with the Becke-Johnson damping scheme (D3BJ)
Cite in your paper:
S.Grimme, S.Ehrlich, L.Goerigk, J Comput Chem, (2011), 32, 1456–1465 
S.Grimme, J.Antony, S.Ehrlich and H.Krieg, J.Chem.Phys., 132, (2010), 154104 
   

----- Orbital basis set information -----
Your calculation utilizes the basis: def2-TZVPPD
   F. Weigend and R. Ahlrichs, Phys. Chem. Chem. Phys. 7, 3297 (2005).
   D. Rappoport and F. Furche, J. Chem. Phys. 133 134105 (2010).

----- AuxC basis set information -----
Your calculation utilizes the auxiliary basis: def2-TZVPPD/C
   A. Hellweg, C. Hattig, S. Hofener and W. Klopper, Theor. Chem. Acc. 117, 587 (2007).

----- AuxJK basis set information -----
Your calculation utilizes the auxiliary basis: def2/JK
   H-Ba, Hf-Rn: F. Weigend, J. Comput. Chem. 29, 167 (2008).

================================================================================
                                        WARNINGS
                       Please study these warnings very carefully!
================================================================================


WARNING: No MP2 level density has been requested!
         To caclulate MP2 level properties use
         %mp2 Density relaxed end
         or
         %mp2 Density unrelaxed end
         Otherwise for double-hybrid DFT only the energy is correct!

WARNING: There are different parametrizations of Gershom Martin's DSD-DFs
         for use with and without D3(BJ)!
         You are using the D3(BJ) parametrized version,
         consistent with the 2013 article (S. Kozuch and J. M. L. Martin, JCC 2013, 34, 2327)

WARNING: The frozen-core approximation is turned on by default for 
         the MP2 part of double-hybrid DFT.

INFO   : the flag for use of LIBINT has been found!

================================================================================
                                       INPUT FILE
================================================================================
NAME = 166_h.in
|  1> #
|  2> # 166_h ri-DSD-BLYP/2013-D3BJ/Def2-TZVPPD
|  3> #
|  4> ! rijk ri-dsd-blyp/2013 d3bj def2-tzvppd def2/jk def2-tzvppd/c grid4 nofinalgrid
|  5> 
|  6> *xyz 0 1
|  7> H          0.00000        0.00000        0.37586
|  8> H          0.00000        0.00000       -0.37586
|  9> *
| 10> 
| 11> %maxcore 5000
| 12> 
| 13> %pal
| 14> nprocs = 24
| 15> end
| 16> 
| 17> 
| 18>                          ****END OF INPUT****
================================================================================

                       ****************************
                       * Single Point Calculation *
                       ****************************

---------------------------------
CARTESIAN COORDINATES (ANGSTROEM)
---------------------------------
  H      0.000000    0.000000    0.375860
  H      0.000000    0.000000   -0.375860

----------------------------
CARTESIAN COORDINATES (A.U.)
----------------------------
  NO LB      ZA    FRAG     MASS         X           Y           Z
   0 H     1.0000    0     1.008    0.000000    0.000000    0.710272
   1 H     1.0000    0     1.008    0.000000    0.000000   -0.710272

--------------------------------
INTERNAL COORDINATES (ANGSTROEM)
--------------------------------
 H      0   0   0     0.000000000000     0.00000000     0.00000000
 H      1   0   0     0.751720000000     0.00000000     0.00000000

---------------------------
INTERNAL COORDINATES (A.U.)
---------------------------
 H      0   0   0     0.000000000000     0.00000000     0.00000000
 H      1   0   0     1.420544929391     0.00000000     0.00000000

---------------------
BASIS SET INFORMATION
---------------------
There are 1 groups of distinct atoms

 Group   1 Type H   : 5s3p1d contracted to 3s3p1d pattern {311/111/1}

Atom   0H    basis set group =>   1
Atom   1H    basis set group =>   1
---------------------------------
AUXILIARY/C BASIS SET INFORMATION
---------------------------------
There are 1 groups of distinct atoms

 Group   1 Type H   : 5s4p3d1f contracted to 5s4p3d1f pattern {11111/1111/111/1}

Atom   0H    basis set group =>   1
Atom   1H    basis set group =>   1
----------------------------------
AUXILIARY/JK BASIS SET INFORMATION
----------------------------------
There are 1 groups of distinct atoms

 Group   1 Type H   : 4s2p2d contracted to 2s2p2d pattern {31/11/11}

Atom   0H    basis set group =>   1
Atom   1H    basis set group =>   1


           ************************************************************
           *        Program running with 24 parallel MPI-processes    *
           *              working on a common directory               *
           ************************************************************
------------------------------------------------------------------------------
                           ORCA GTO INTEGRAL CALCULATION
                           -- RI-GTO INTEGRALS CHOSEN --
------------------------------------------------------------------------------

                         BASIS SET STATISTICS AND STARTUP INFO

Gaussian basis set:
 # of primitive gaussian shells          ...   18
 # of primitive gaussian functions       ...   38
 # of contracted shells                  ...   14
 # of contracted basis functions         ...   34
 Highest angular momentum                ...    2
 Maximum contraction depth               ...    3
Auxiliary gaussian basis set:
 # of primitive gaussian shells          ...   16
 # of primitive gaussian functions       ...   40
 # of contracted shells                  ...   12
 # of contracted aux-basis functions     ...   36
 Highest angular momentum                ...    2
 Maximum contraction depth               ...    3
Ratio of auxiliary to basis functions    ...  1.06
Integral package used                  ... LIBINT
 One Electron integrals                  ... done
 Ordering auxiliary basis shells         ... done
 Integral threshhold             Thresh  ...  1.000e-10
 Primitive cut-off               TCut    ...  1.000e-11
 Pre-screening matrix                    ... done
 Shell pair data                         ... 
 Ordering of the shell pairs             ... done (   0.000 sec) 105 of 105 pairs
 Determination of significant pairs      ... done (   0.000 sec)
 Creation of shell pair data             ... done (   0.000 sec)
 Storage of shell pair data              ... done (   0.037 sec)
 Shell pair data done in (   0.037 sec)
 Computing two index integrals           ... done
 Cholesky decomposition of the V-matrix  ... done


Timings:
 Total evaluation time                   ...   0.194 sec (  0.003 min)
 One electron matrix time                ...   0.039 sec (  0.001 min) = 20.0%
 Schwartz matrix evaluation time         ...   0.104 sec (  0.002 min) = 53.4%
 Two index repulsion integral time       ...   0.000 sec (  0.000 min) =  0.1%
 Cholesky decomposition of V             ...   0.001 sec (  0.000 min) =  0.3%
 Three index repulsion integral time     ...   0.000 sec (  0.000 min) =  0.0%



           ************************************************************
           *        Program running with 24 parallel MPI-processes    *
           *              working on a common directory               *
           ************************************************************
-------------------------------------------------------------------------------
                                 ORCA SCF
-------------------------------------------------------------------------------

------------
SCF SETTINGS
------------
Hamiltonian:
 Density Functional     Method          .... DFT(GTOs)
 Exchange Functional    Exchange        .... B88
   X-Alpha parameter    XAlpha          ....  0.666667
   Becke's b parameter  XBeta           ....  0.004200
 Correlation Functional Correlation     .... LYP
 LDA part of GGA corr.  LDAOpt          .... VWN-5
 Gradients option       PostSCFGGA      .... off
 Hybrid DFT is turned on
   Fraction HF Exchange ScalHFX         ....  0.710000
   Scaling of DF-GGA-X  ScalDFX         ....  0.290000
   Scaling of DF-GGA-C  ScalDFC         ....  0.540000
   Scaling of DF-LDA-C  ScalLDAC        ....  0.540000
   Perturbative correction              ....  1.000000
   Density functional embedding theory  .... OFF
 RI-approximation to the Coulomb term is turned on
   Number of auxiliary basis functions  .... 36
   RI-JK (J+K treated both via RI)      .... on


General Settings:
 Integral files         IntName         .... 166_h
 Hartree-Fock type      HFTyp           .... RHF
 Total Charge           Charge          ....    0
 Multiplicity           Mult            ....    1
 Number of Electrons    NEL             ....    2
 Basis Dimension        Dim             ....   34
 Nuclear Repulsion      ENuc            ....      0.7039552071 Eh

Convergence Acceleration:
 DIIS                   CNVDIIS         .... on
   Start iteration      DIISMaxIt       ....    12
   Startup error        DIISStart       ....  0.200000
   # of expansion vecs  DIISMaxEq       ....     5
   Bias factor          DIISBfac        ....   1.050
   Max. coefficient     DIISMaxC        ....  10.000
 Newton-Raphson         CNVNR           .... off
 SOSCF                  CNVSOSCF        .... on
   Start iteration      SOSCFMaxIt      ....   150
   Startup grad/error   SOSCFStart      ....  0.003300
 Level Shifting         CNVShift        .... on
   Level shift para.    LevelShift      ....    0.2500
   Turn off err/grad.   ShiftErr        ....    0.0010
 Zerner damping         CNVZerner       .... off
 Static damping         CNVDamp         .... on
   Fraction old density DampFac         ....    0.7000
   Max. Damping (<1)    DampMax         ....    0.9800
   Min. Damping (>=0)   DampMin         ....    0.0000
   Turn off err/grad.   DampErr         ....    0.1000
 Fernandez-Rico         CNVRico         .... off

SCF Procedure:
 Maximum # iterations   MaxIter         ....   125
 SCF integral mode      SCFMode         .... Direct
   Integral package                     .... LIBINT
 Reset frequency        DirectResetFreq ....    20
 Integral Threshold     Thresh          ....  1.000e-10 Eh
 Primitive CutOff       TCut            ....  1.000e-11 Eh

Convergence Tolerance:
 Convergence Check Mode ConvCheckMode   .... Total+1el-Energy
 Convergence forced     ConvForced      .... 0
 Energy Change          TolE            ....  1.000e-06 Eh
 1-El. energy change                    ....  1.000e-03 Eh
 Orbital Gradient       TolG            ....  5.000e-05
 Orbital Rotation angle TolX            ....  5.000e-05
 DIIS Error             TolErr          ....  1.000e-06


Diagonalization of the overlap matrix:
Smallest eigenvalue                        ... 2.583e-04
Time for diagonalization                   ...    0.001 sec
Threshold for overlap eigenvalues          ... 1.000e-08
Number of eigenvalues below threshold      ... 0
Time for construction of square roots      ...    0.001 sec
Total time needed                          ...    0.002 sec

-------------------
DFT GRID GENERATION
-------------------

General Integration Accuracy     IntAcc      ...  4.670
Radial Grid Type                 RadialGrid  ... Gauss-Chebyshev
Angular Grid (max. acc.)         AngularGrid ... Lebedev-302
Angular grid pruning method      GridPruning ... 3 (G Style)
Weight generation scheme         WeightScheme... Becke
Basis function cutoff            BFCut       ...    1.0000e-10
Integration weight cutoff        WCut        ...    1.0000e-14
Grids for H and He will be reduced by one unit

# of grid points (after initial pruning)     ...   6788 (   0.0 sec)
# of grid points (after weights+screening)   ...   6758 (   0.0 sec)
nearest neighbour list constructed           ...    0.0 sec
Grid point re-assignment to atoms done       ...    0.0 sec
Grid point division into batches done        ...    0.0 sec
Reduced shell lists constructed in    0.0 sec

Total number of grid points                  ...     6758
Total number of batches                      ...      106
Average number of points per batch           ...       63
Average number of grid points per atom       ...     3379
Average number of shells per batch           ...     6.33 (45.24%)
Average number of basis functions per batch  ...    12.67 (37.25%)
Average number of large shells per batch     ...     6.00 (94.74%)
Average number of large basis fcns per batch ...    12.00 (94.74%)
Average number of aux-shells per batch       ...     6.33 (52.78%)
Average number of aux functions per batch    ...    12.67 (35.19%)
Maximum spatial batch extension              ...  15.43, 15.43,  9.43 au
Average spatial batch extension              ...   0.63,  0.63,  0.39 au

Time for grid setup =    0.047 sec

------------------------------
INITIAL GUESS: MODEL POTENTIAL
------------------------------
Loading Hartree-Fock densities                     ... done
Calculating cut-offs                               ... done
Setting up the integral package                    ... done
Initializing the effective Hamiltonian             ... done
Starting the Coulomb interaction                   ... done (   0.0 sec)
Reading the grid                                   ... done
Mapping shells                                     ... done
Starting the XC term evaluation                    ... done (   0.0 sec)
  promolecular density results
     # of electrons  =      1.999020292
     EX              =     -0.565374007
     EC              =      0.004575598
     EX+EC           =     -0.560798409
Transforming the Hamiltonian                       ... done (   0.0 sec)
Diagonalizing the Hamiltonian                      ... done (   0.0 sec)
Back transforming the eigenvectors                 ... done (   0.0 sec)
Now organizing SCF variables                       ... done
                      ------------------
                      INITIAL GUESS DONE (   0.2 sec)
                      ------------------
--------------
SCF ITERATIONS
--------------
ITER       Energy         Delta-E        Max-DP      RMS-DP      [F,P]     Damp
  0     -1.1483496757   0.000000000000 0.00501647  0.00036115  0.0704931 0.7000
  1     -1.1437447883   0.004604887362 0.00472354  0.00038716  0.0680201 0.7000
                               ***Turning on DIIS***
  2     -1.1440062124  -0.000261424091 0.01172401  0.00106976  0.0515066 0.0000
  3     -1.1526409129  -0.008634700535 0.00146709  0.00014548  0.0120525 0.0000
  4     -1.1527674952  -0.000126582248 0.00081053  0.00008366  0.0047496 0.0000
                      *** Initiating the SOSCF procedure ***
                           *** Shutting down DIIS ***
                      *** Re-Reading the Fockian *** 
                      *** Removing any level shift *** 
ITER      Energy       Delta-E        Grad      Rot      Max-DP    RMS-DP
  5     -1.15278933  -0.0000218323  0.000727  0.000727  0.000465  0.000040
  6     -1.15279213  -0.0000028040  0.000274  0.000374  0.000269  0.000021
                 **** Energy Check signals convergence ****
              ***Rediagonalizing the Fockian in SOSCF/NRSCF***

               *****************************************************
               *                     SUCCESS                       *
               *           SCF CONVERGED AFTER   7 CYCLES          *
               *****************************************************


----------------
TOTAL SCF ENERGY
----------------

Total Energy       :           -1.15279247 Eh             -31.36908 eV

Components:
Nuclear Repulsion  :            0.70395521 Eh              19.15560 eV
Electronic Energy  :           -1.85674768 Eh             -50.52467 eV
One Electron Energy:           -2.49138320 Eh             -67.79398 eV
Two Electron Energy:            0.63463552 Eh              17.26931 eV

Virial components:
Potential Energy   :           -2.27226607 Eh             -61.83150 eV
Kinetic Energy     :            1.11947360 Eh              30.46243 eV
Virial Ratio       :            2.02976299


DFT components:
N(Alpha)           :        1.000000120404 electrons
N(Beta)            :        1.000000120404 electrons
N(Total)           :        2.000000240808 electrons
E(X)               :       -0.189254766337 Eh       
E(C)               :       -0.020637300116 Eh       
E(XC)              :       -0.209892066453 Eh       
DFET-embed. en.    :        0.000000000000 Eh       

---------------
SCF CONVERGENCE
---------------

  Last Energy change         ...   -3.4149e-07  Tolerance :   1.0000e-06
  Last MAX-Density change    ...    5.1294e-05  Tolerance :   1.0000e-05
  Last RMS-Density change    ...    3.7130e-06  Tolerance :   1.0000e-06
  Last Orbital Gradient      ...    3.2931e-05  Tolerance :   5.0000e-05
  Last Orbital Rotation      ...    5.1798e-05  Tolerance :   5.0000e-05

             **** THE GBW FILE WAS UPDATED (166_h.gbw) ****
             **** DENSITY FILE WAS UPDATED (166_h.scfp) ****
             **** ENERGY FILE WAS UPDATED (166_h.en.tmp) ****
             **** THE GBW FILE WAS UPDATED (166_h.gbw) ****
             **** DENSITY FILE WAS UPDATED (166_h.scfp) ****
----------------
ORBITAL ENERGIES
----------------

  NO   OCC          E(Eh)            E(eV) 
   0   2.0000      -0.536107       -14.5882 
   1   0.0000       0.096283         2.6200 
   2   0.0000       0.163824         4.4579 
   3   0.0000       0.163824         4.4579 
   4   0.0000       0.195552         5.3212 
   5   0.0000       0.285111         7.7583 
   6   0.0000       0.285111         7.7583 
   7   0.0000       0.320519         8.7218 
   8   0.0000       0.378198        10.2913 
   9   0.0000       0.812346        22.1051 
  10   0.0000       0.851209        23.1626 
  11   0.0000       0.851209        23.1626 
  12   0.0000       1.105271        30.0759 
  13   0.0000       1.222271        33.2597 
  14   0.0000       1.222271        33.2597 
  15   0.0000       1.489733        40.5377 
  16   0.0000       2.435385        66.2702 
  17   0.0000       2.512877        68.3788 
  18   0.0000       3.069559        83.5269 
  19   0.0000       3.069560        83.5270 
  20   0.0000       3.432687        93.4082 
  21   0.0000       3.432687        93.4082 
  22   0.0000       3.641280        99.0843 
  23   0.0000       3.947176       107.4081 
  24   0.0000       3.947176       107.4081 
  25   0.0000       3.968450       107.9870 
  26   0.0000       3.968452       107.9871 
  27   0.0000       4.053548       110.3026 
  28   0.0000       4.053548       110.3026 
  29   0.0000       4.504921       122.5851 
  30   0.0000       5.570104       151.5702 
  31   0.0000       5.570104       151.5702 
  32   0.0000       5.733324       156.0117 
  33   0.0000       6.946866       189.0338 

                    ********************************
                    * MULLIKEN POPULATION ANALYSIS *
                    ********************************

-----------------------
MULLIKEN ATOMIC CHARGES
-----------------------
   0 H :   -0.000000
   1 H :    0.000000
Sum of atomic charges:    0.0000000

--------------------------------
MULLIKEN REDUCED ORBITAL CHARGES
--------------------------------
  0 H s       :     0.981250  s :     0.981250
      pz      :     0.018610  p :     0.018610
      px      :     0.000000
      py      :    -0.000000
      dz2     :     0.000140  d :     0.000140
      dxz     :     0.000000
      dyz     :    -0.000000
      dx2y2   :     0.000000
      dxy     :     0.000000
  1 H s       :     0.981250  s :     0.981250
      pz      :     0.018610  p :     0.018610
      px      :     0.000000
      py      :     0.000000
      dz2     :     0.000140  d :     0.000140
      dxz     :     0.000000
      dyz     :    -0.000000
      dx2y2   :     0.000000
      dxy     :    -0.000000


                     *******************************
                     * LOEWDIN POPULATION ANALYSIS *
                     *******************************

----------------------
LOEWDIN ATOMIC CHARGES
----------------------
   0 H :   -0.000000
   1 H :    0.000000

-------------------------------
LOEWDIN REDUCED ORBITAL CHARGES
-------------------------------
  0 H s       :     0.935041  s :     0.935041
      pz      :     0.059204  p :     0.059204
      px      :     0.000000
      py      :     0.000000
      dz2     :     0.005755  d :     0.005755
      dxz     :     0.000000
      dyz     :     0.000000
      dx2y2   :     0.000000
      dxy     :     0.000000
  1 H s       :     0.935041  s :     0.935041
      pz      :     0.059204  p :     0.059204
      px      :     0.000000
      py      :     0.000000
      dz2     :     0.005755  d :     0.005755
      dxz     :     0.000000
      dyz     :     0.000000
      dx2y2   :     0.000000
      dxy     :     0.000000


                      *****************************
                      * MAYER POPULATION ANALYSIS *
                      *****************************

  NA   - Mulliken gross atomic population
  ZA   - Total nuclear charge
  QA   - Mulliken gross atomic charge
  VA   - Mayer's total valence
  BVA  - Mayer's bonded valence
  FA   - Mayer's free valence

  ATOM       NA         ZA         QA         VA         BVA        FA
  0 H      1.0000     1.0000    -0.0000     1.0000     1.0000     0.0000
  1 H      1.0000     1.0000     0.0000     1.0000     1.0000     0.0000

  Mayer bond orders larger than 0.100000
B(  0-H ,  1-H ) :   1.0000 

-------
TIMINGS
-------

Total SCF time: 0 days 0 hours 0 min 0 sec 

Total time                  ....       0.936 sec
Sum of individual times     ....       0.841 sec  ( 89.8%)

Fock matrix formation       ....       0.639 sec  ( 68.3%)
  XC integration            ....       0.040 sec  (  6.3% of F)
    Basis function eval.    ....       0.002 sec  (  5.6% of XC)
    Density eval.           ....       0.002 sec  (  3.9% of XC)
    XC-Functional eval.     ....       0.002 sec  (  5.2% of XC)
    XC-Potential eval.      ....       0.001 sec  (  3.1% of XC)
Diagonalization             ....       0.002 sec  (  0.2%)
Density matrix formation    ....       0.001 sec  (  0.2%)
Population analysis         ....       0.003 sec  (  0.3%)
Initial guess               ....       0.147 sec  ( 15.7%)
Orbital Transformation      ....       0.000 sec  (  0.0%)
Orbital Orthonormalization  ....       0.000 sec  (  0.0%)
DIIS solution               ....       0.002 sec  (  0.2%)
SOSCF solution              ....       0.001 sec  (  0.1%)
Grid generation             ....       0.047 sec  (  5.0%)


           ************************************************************
           *        Program running with 24 parallel MPI-processes    *
           *              working on a common directory               *
           ************************************************************

------------------------------------------------------------------------------
                                ORCA  MP2 
------------------------------------------------------------------------------

Freezing NCore=0 chemical core electrons

-------------
RI-MP2 ENERGY
-------------
Dimension of the basis                    ...   34
Memory devoted to MP2                     ... 5000 MB   
Data format for buffers                   ... DOUBLE
Compression type for matrix containers    ... UNCOMPRESSED
Scaling for aa/bb pairs                   ...   4.000e-01
Scaling for ab pairs                      ...   4.700e-01
Overall scaling of the MP2 energy         ...   1.000e+00
Calculating two index integrals           ... done (    0.001 sec)
Cholesky decomposition of V**-1           ... done (    0.003 sec)

-----------------
RI-TRANSFORMATION (AUX index driven)
-----------------

Dimension of the orbital-basis         ... 34
Dimension of the aux-basis             ... 78
Transformation of internal/external MOs...    0-   0 to    1-  33
Number Format for Storage              ... Double (8 Byte)
Integral mode                          ... Direct

First Phase: integral generation and transformation of MO indices
  Aux angular momentum 0               ... done (    0.000 sec)
  Aux angular momentum 1               ... done (    0.000 sec)
  Aux angular momentum 2               ... done (    0.000 sec)
  Aux angular momentum 3               ... done (    0.000 sec)
Closing buffer VIA ( 0.00 GB; CompressionRatio= 0.96)
  Phase 1 completed in     0.107 sec
Second Phase: sorting and transformation of aux index

IA-Transformation
Memory available                       ... 5000 MB 
Max. # MO pairs treated in a batch     ... 1    
# of internal orbitals                 ... 1
# batches for internal orbitals        ... 1
Closing buffer IAV ( 0.00 GB; CompressionRatio= 1.00)
(ia|v) transformation done in     0.001 sec

  Phase 2 completed in     0.003 sec
RI-Integral transformation completed in     0.111 sec
Opening buffers                              ... done

Starting loop over batches of integrals:

Operator 0  - window                       ... (  0-  0)x(  1- 33)
Operator 0  - Memory available             ...  5000 MB
Operator 0  - Memory needed per MO         ...   0.0 MB
Operator 0  - Number of orbitals per batch ... 1
Operator 0  - Number of batches            ... 1

OPERATOR  0   PASS   0:  MOs     0 ...    0
  Reading integrals       ... ok
Time spent in pair loops =     0.000 sec

-----------------------------------------------
 RI-MP2 CORRELATION ENERGY:     -0.016543231 Eh
-----------------------------------------------


-------
TIMINGS
-------

Total time                :    0.128 sec
Integral trafo            :    0.124 sec ( 96.7%)
I/O of integrals          :    0.000 sec (  0.0%)
K(i,j) Operators          :    0.000 sec (  0.0%)
T(i,j) pair energies      :    0.000 sec (  0.0%)
V-calculation             :    0.001 sec (  0.5%)
V**(-1/2)                 :    0.003 sec (  2.0%)
Gamma(ia|P)               :    0.000 sec (  0.0%)
Gamma-Trafo               :    0.000 sec (  0.0%)
D(virtual)                :    0.000 sec (  0.0%)
D(internal)               :    0.000 sec (  0.0%)
W(virtual)                :    0.000 sec (  0.0%)
W(internal)               :    0.000 sec (  0.0%)
L(virtual)                :    0.000 sec (  0.0%)
L(internal)               :    0.000 sec (  0.0%)
G(D)                      :    0.000 sec (  0.0%)
G(Z)                      :    0.000 sec (  0.0%)
Z-Vector Solution         :    0.000 sec (  0.0%)
Z-Vector Solution         :    0.000 sec (  0.0%)
3-Index Derivative 
+ Separable RIJ part      :    0.000 sec (  0.0%)
2-Index Derivative 
+ Separable RIJ part      :    0.000 sec (  0.0%)
Separable Gradient (X)    :    0.000 sec (  0.0%)


---------------------------------------
MP2 TOTAL ENERGY:       -1.169335704 Eh
---------------------------------------


-------------------------------------------------------------------------------
                          DFT DISPERSION CORRECTION                            
                                                                               
                              DFTD3 V3.1  Rev 1                                
                          USING Becke-Johnson damping                          
-------------------------------------------------------------------------------
The DSD-BLYP/2013 functional is recognized
Active option DFTDOPT                   ...         4   

molecular C6(AA) [au] = 12.641307 


            DFT-D V3
 parameters
 s6 scaling factor         :     0.5700 
 a1 scaling factor         :     0.0000 
 s8 scaling factor         :     0.0000 
 a2 scaling factor         :     5.4000 
 ad hoc parameters k1-k3   :    16.0000     1.3333    -4.0000 

 Edisp/kcal,au: -0.045574372288  -0.000072627377 
 E6   /kcal   :  -0.045574372 
 E8   /kcal   :  -0.000000000 
 % E8         :   0.000000000 

-------------------------   ----------------
Dispersion correction           -0.000072627
-------------------------   ----------------


-------------------------   --------------------
FINAL SINGLE POINT ENERGY        -1.169408330964
-------------------------   --------------------


                            ***************************************
                            *     ORCA property calculations      *
                            ***************************************


  WARNING: The energy has been calculated at the MP2 level but the densities
           used in the property calculations are still SCF densities
           MP2 response densities have not been calculated 
           use %mp2 Density relaxed end
           or  %mp2 Density unrelaxed end

                                    ---------------------
                                    Active property flags
                                    ---------------------
   (+) Dipole Moment


------------------------------------------------------------------------------
                       ORCA ELECTRIC PROPERTIES CALCULATION
------------------------------------------------------------------------------

Dipole Moment Calculation                       ... on
Quadrupole Moment Calculation                   ... off
Polarizability Calculation                      ... off
GBWName                                         ... 166_h.gbw
Electron density file                           ... 166_h.scfp
The origin for moment calculation is the CENTER OF MASS  = ( 0.000000,  0.000000  0.000000)

-------------
DIPOLE MOMENT
-------------
                                X             Y             Z
Electronic contribution:      0.00000      -0.00000      -0.00000
Nuclear contribution   :      0.00000       0.00000       0.00000
                        -----------------------------------------
Total Dipole Moment    :      0.00000      -0.00000      -0.00000
                        -----------------------------------------
Magnitude (a.u.)       :      0.00000
Magnitude (Debye)      :      0.00000



--------------------
Rotational spectrum 
--------------------
 
Rotational constants in cm-1:     0.000000    59.190792    59.190792 
Rotational constants in MHz :     0.000000 1774495.316074 1774495.316074 

 Dipole components along the rotational axes: 
x,y,z [a.u.] :    -0.000000    -0.000000     0.000000 
x,y,z [Debye]:    -0.000000    -0.000000     0.000000 

 

Timings for individual modules:

Sum of individual times         ...        2.649 sec (=   0.044 min)
GTO integral calculation        ...        0.646 sec (=   0.011 min)  24.4 %
SCF iterations                  ...        1.332 sec (=   0.022 min)  50.3 %
MP2 module                      ...        0.671 sec (=   0.011 min)  25.3 %
                             ****ORCA TERMINATED NORMALLY****
TOTAL RUN TIME: 0 days 0 hours 0 minutes 3 seconds 238 msec
