
                                 *****************
                                 * O   R   C   A *
                                 *****************

           --- An Ab Initio, DFT and Semiempirical electronic structure package ---

                  #######################################################
                  #                        -***-                        #
                  #          Department of theory and spectroscopy      #
                  #               Directorship: Frank Neese             #
                  #        Max Planck Institute fuer Kohlenforschung    #
                  #                Kaiser Wilhelm Platz 1               #
                  #                 D-45470 Muelheim/Ruhr               #
                  #                      Germany                        #
                  #                                                     #
                  #                  All rights reserved                #
                  #                        -***-                        #
                  #######################################################


                         Program Version 4.2.0 -  RELEASE  -


 With contributions from (in alphabetic order):
   Daniel Aravena         : Magnetic Suceptibility
   Michael Atanasov       : Ab Initio Ligand Field Theory (pilot matlab implementation)
   Alexander A. Auer      : GIAO ZORA, VPT2
   Ute Becker             : Parallelization
   Giovanni Bistoni       : ED, misc. LED, open-shell LED, HFLED
   Martin Brehm           : Molecular dynamics
   Dmytro Bykov           : SCF Hessian
   Vijay G. Chilkuri      : MRCI spin determinant printing, contributions to CSF-ICE
   Dipayan Datta          : RHF DLPNO-CCSD density
   Achintya Kumar Dutta   : EOM-CC, STEOM-CC
   Dmitry Ganyushin       : Spin-Orbit,Spin-Spin,Magnetic field MRCI
   Miquel Garcia          : C-PCM Hessian, Gaussian charge scheme
   Yang Guo               : DLPNO-NEVPT2, CIM, IAO-localization
   Andreas Hansen         : Spin unrestricted coupled pair/coupled cluster methods
   Benjamin Helmich-Paris : CASSCF linear response (MC-RPA)
   Lee Huntington         : MR-EOM, pCC
   Robert Izsak           : Overlap fitted RIJCOSX, COSX-SCS-MP3, EOM
   Christian Kollmar      : KDIIS, OOCD, Brueckner-CCSD(T), CCSD density
   Simone Kossmann        : Meta GGA functionals, TD-DFT gradient, OOMP2, MP2 Hessian
   Martin Krupicka        : AUTO-CI
   Lucas Lang             : DCDCAS
   Dagmar Lenk            : GEPOL surface, SMD
   Dimitrios Liakos       : Extrapolation schemes; Compound Job, initial MDCI parallelization
   Dimitrios Manganas     : Further ROCIS development; embedding schemes
   Dimitrios Pantazis     : SARC Basis sets
   Taras Petrenko         : DFT Hessian,TD-DFT gradient, ASA, ECA, R-Raman, ABS, FL, XAS/XES, NRVS
   Peter Pinski           : DLPNO-MP2, DLPNO-MP2 Gradient
   Christoph Reimann      : Effective Core Potentials
   Marius Retegan         : Local ZFS, SOC
   Christoph Riplinger    : Optimizer, TS searches, QM/MM, DLPNO-CCSD(T), (RO)-DLPNO pert. Triples
   Tobias Risthaus        : Range-separated hybrids, TD-DFT gradient, RPA, STAB
   Michael Roemelt        : Original ROCIS implementation
   Masaaki Saitow         : Open-shell DLPNO-CCSD energy and density
   Barbara Sandhoefer     : DKH picture change effects
   Avijit Sen             : IP-ROCIS
   Kantharuban Sivalingam : CASSCF convergence, NEVPT2, FIC-MRCI
   Bernardo de Souza      : ESD, SOC TD-DFT
   Georgi Stoychev        : AutoAux, RI-MP2 NMR
   Willem Van den Heuvel  : Paramagnetic NMR
   Boris Wezisla          : Elementary symmetry handling
   Frank Wennmohs         : Technical directorship


 We gratefully acknowledge several colleagues who have allowed us to
 interface, adapt or use parts of their codes:
   Stefan Grimme, W. Hujo, H. Kruse,             : VdW corrections, initial TS optimization,
                  C. Bannwarth                     DFT functionals, gCP, sTDA/sTD-DF
   Ed Valeev, F. Pavosevic, A. Kumar             : LibInt (2-el integral package), F12 methods
   Garnet Chan, S. Sharma, J. Yang, R. Olivares  : DMRG
   Ulf Ekstrom                                   : XCFun DFT Library
   Mihaly Kallay                                 : mrcc  (arbitrary order and MRCC methods)
   Andreas Klamt, Michael Diedenhofen            : otool_cosmo (COSMO solvation model)
   Jiri Pittner, Ondrej Demel                    : Mk-CCSD
   Frank Weinhold                                : gennbo (NPA and NBO analysis)
   Christopher J. Cramer and Donald G. Truhlar   : smd solvation model
   Lars Goerigk                                  : TD-DFT with DH, B97 family of functionals
   V. Asgeirsson, H. Jonsson                     : NEB implementation
   FAccTs GmbH                                   : IRC, NEB, NEB-TS, Multilevel, MM, QM/MM, CI optimization
   S Lehtola, MJT Oliveira, MAL Marques          : LibXC Library


 Your calculation uses the libint2 library for the computation of 2-el integrals
 For citations please refer to: http://libint.valeyev.net

 Your ORCA version has been built with support for libXC version: 4.2.3
 For citations please refer to: https://tddft.org/programs/libxc/

 This ORCA versions uses:
   CBLAS   interface :  Fast vector & matrix operations
   LAPACKE interface :  Fast linear algebra routines
   SCALAPACK package :  Parallel linear algebra routines


Your calculation utilizes the atom-pairwise dispersion correction
with the Becke-Johnson damping scheme (D3BJ)
Cite in your paper:
S.Grimme, S.Ehrlich, L.Goerigk, J Comput Chem, (2011), 32, 1456–1465 
S.Grimme, J.Antony, S.Ehrlich and H.Krieg, J.Chem.Phys., 132, (2010), 154104 
   

----- Orbital basis set information -----
Your calculation utilizes the basis: def2-TZVPPD
   F. Weigend and R. Ahlrichs, Phys. Chem. Chem. Phys. 7, 3297 (2005).
   D. Rappoport and F. Furche, J. Chem. Phys. 133 134105 (2010).

----- AuxC basis set information -----
Your calculation utilizes the auxiliary basis: def2-TZVPPD/C
   A. Hellweg, C. Hattig, S. Hofener and W. Klopper, Theor. Chem. Acc. 117, 587 (2007).

----- AuxJK basis set information -----
Your calculation utilizes the auxiliary basis: def2/JK
   H-Ba, Hf-Rn: F. Weigend, J. Comput. Chem. 29, 167 (2008).

================================================================================
                                        WARNINGS
                       Please study these warnings very carefully!
================================================================================


WARNING: No MP2 level density has been requested!
         To caclulate MP2 level properties use
         %mp2 Density relaxed end
         or
         %mp2 Density unrelaxed end
         Otherwise for double-hybrid DFT only the energy is correct!

WARNING: There are different parametrizations of Gershom Martin's DSD-DFs
         for use with and without D3(BJ)!
         You are using the D3(BJ) parametrized version,
         consistent with the 2013 article (S. Kozuch and J. M. L. Martin, JCC 2013, 34, 2327)

WARNING: The frozen-core approximation is turned on by default for 
         the MP2 part of double-hybrid DFT.

INFO   : the flag for use of LIBINT has been found!

================================================================================
                                       INPUT FILE
================================================================================
NAME = 169_b.in
|  1> #
|  2> # 169_b ri-DSD-BLYP/2013-D3BJ/Def2-TZVPPD
|  3> #
|  4> ! rijk ri-dsd-blyp/2013 d3bj def2-tzvppd def2/jk def2-tzvppd/c grid4 nofinalgrid
|  5> 
|  6> *xyz 0 1
|  7> B          0.00000        0.00000        0.00000
|  8> H          0.60006        1.03933        0.00000
|  9> H          0.60006       -1.03933        0.00000
| 10> H         -1.20012        0.00000        0.00000
| 11> *
| 12> 
| 13> %maxcore 5000
| 14> 
| 15> %pal
| 16> nprocs = 24
| 17> end
| 18> 
| 19> 
| 20>                          ****END OF INPUT****
================================================================================

                       ****************************
                       * Single Point Calculation *
                       ****************************

---------------------------------
CARTESIAN COORDINATES (ANGSTROEM)
---------------------------------
  B      0.000000    0.000000    0.000000
  H      0.600060    1.039330    0.000000
  H      0.600060   -1.039330    0.000000
  H     -1.200120    0.000000    0.000000

----------------------------
CARTESIAN COORDINATES (A.U.)
----------------------------
  NO LB      ZA    FRAG     MASS         X           Y           Z
   0 B     5.0000    0    10.810    0.000000    0.000000    0.000000
   1 H     1.0000    0     1.008    1.133949    1.964049    0.000000
   2 H     1.0000    0     1.008    1.133949   -1.964049    0.000000
   3 H     1.0000    0     1.008   -2.267898    0.000000    0.000000

--------------------------------
INTERNAL COORDINATES (ANGSTROEM)
--------------------------------
 B      0   0   0     0.000000000000     0.00000000     0.00000000
 H      1   0   0     1.200116182917     0.00000000     0.00000000
 H      1   2   0     1.200116182917   119.99978957     0.00000000
 H      1   2   3     1.200120000000   120.00010521   180.00000000

---------------------------
INTERNAL COORDINATES (A.U.)
---------------------------
 B      0   0   0     0.000000000000     0.00000000     0.00000000
 H      1   0   0     2.267890914601     0.00000000     0.00000000
 H      1   2   0     2.267890914601   119.99978957     0.00000000
 H      1   2   3     2.267898127842   120.00010521   180.00000000

---------------------
BASIS SET INFORMATION
---------------------
There are 2 groups of distinct atoms

 Group   1 Type B   : 12s6p3d1f contracted to 6s3p3d1f pattern {621111/411/111/1}
 Group   2 Type H   : 5s3p1d contracted to 3s3p1d pattern {311/111/1}

Atom   0B    basis set group =>   1
Atom   1H    basis set group =>   2
Atom   2H    basis set group =>   2
Atom   3H    basis set group =>   2
---------------------------------
AUXILIARY/C BASIS SET INFORMATION
---------------------------------
There are 2 groups of distinct atoms

 Group   1 Type B   : 9s7p6d4f1g contracted to 9s7p5d4f1g pattern {111111111/1111111/21111/1111/1}
 Group   2 Type H   : 5s4p3d1f contracted to 5s4p3d1f pattern {11111/1111/111/1}

Atom   0B    basis set group =>   1
Atom   1H    basis set group =>   2
Atom   2H    basis set group =>   2
Atom   3H    basis set group =>   2
----------------------------------
AUXILIARY/JK BASIS SET INFORMATION
----------------------------------
There are 2 groups of distinct atoms

 Group   1 Type B   : 14s10p6d2f1g contracted to 10s8p5d1f1g pattern {5111111111/31111111/21111/2/1}
 Group   2 Type H   : 4s2p2d contracted to 2s2p2d pattern {31/11/11}

Atom   0B    basis set group =>   1
Atom   1H    basis set group =>   2
Atom   2H    basis set group =>   2
Atom   3H    basis set group =>   2


           ************************************************************
           *        Program running with 24 parallel MPI-processes    *
           *              working on a common directory               *
           ************************************************************
------------------------------------------------------------------------------
                           ORCA GTO INTEGRAL CALCULATION
                           -- RI-GTO INTEGRALS CHOSEN --
------------------------------------------------------------------------------

                         BASIS SET STATISTICS AND STARTUP INFO

Gaussian basis set:
 # of primitive gaussian shells          ...   49
 # of primitive gaussian functions       ...  109
 # of contracted shells                  ...   34
 # of contracted basis functions         ...   88
 Highest angular momentum                ...    3
 Maximum contraction depth               ...    6
Auxiliary gaussian basis set:
 # of primitive gaussian shells          ...   57
 # of primitive gaussian functions       ...  157
 # of contracted shells                  ...   43
 # of contracted aux-basis functions     ...  129
 Highest angular momentum                ...    4
 Maximum contraction depth               ...    5
Ratio of auxiliary to basis functions    ...  1.47
Integral package used                  ... LIBINT
 One Electron integrals                  ... done
 Ordering auxiliary basis shells         ... done
 Integral threshhold             Thresh  ...  1.000e-10
 Primitive cut-off               TCut    ...  1.000e-11
 Pre-screening matrix                    ... done
 Shell pair data                         ... 
 Ordering of the shell pairs             ... done (   0.000 sec) 595 of 595 pairs
 Determination of significant pairs      ... done (   0.000 sec)
 Creation of shell pair data             ... done (   0.000 sec)
 Storage of shell pair data              ... done (   0.048 sec)
 Shell pair data done in (   0.048 sec)
 Computing two index integrals           ... done
 Cholesky decomposition of the V-matrix  ... done


Timings:
 Total evaluation time                   ...   0.205 sec (  0.003 min)
 One electron matrix time                ...   0.033 sec (  0.001 min) = 16.0%
 Schwartz matrix evaluation time         ...   0.100 sec (  0.002 min) = 48.9%
 Two index repulsion integral time       ...   0.001 sec (  0.000 min) =  0.2%
 Cholesky decomposition of V             ...   0.001 sec (  0.000 min) =  0.5%
 Three index repulsion integral time     ...   0.000 sec (  0.000 min) =  0.0%



           ************************************************************
           *        Program running with 24 parallel MPI-processes    *
           *              working on a common directory               *
           ************************************************************
-------------------------------------------------------------------------------
                                 ORCA SCF
-------------------------------------------------------------------------------

------------
SCF SETTINGS
------------
Hamiltonian:
 Density Functional     Method          .... DFT(GTOs)
 Exchange Functional    Exchange        .... B88
   X-Alpha parameter    XAlpha          ....  0.666667
   Becke's b parameter  XBeta           ....  0.004200
 Correlation Functional Correlation     .... LYP
 LDA part of GGA corr.  LDAOpt          .... VWN-5
 Gradients option       PostSCFGGA      .... off
 Hybrid DFT is turned on
   Fraction HF Exchange ScalHFX         ....  0.710000
   Scaling of DF-GGA-X  ScalDFX         ....  0.290000
   Scaling of DF-GGA-C  ScalDFC         ....  0.540000
   Scaling of DF-LDA-C  ScalLDAC        ....  0.540000
   Perturbative correction              ....  1.000000
   Density functional embedding theory  .... OFF
 RI-approximation to the Coulomb term is turned on
   Number of auxiliary basis functions  .... 129
   RI-JK (J+K treated both via RI)      .... on


General Settings:
 Integral files         IntName         .... 169_b
 Hartree-Fock type      HFTyp           .... RHF
 Total Charge           Charge          ....    0
 Multiplicity           Mult            ....    1
 Number of Electrons    NEL             ....    8
 Basis Dimension        Dim             ....   88
 Nuclear Repulsion      ENuc            ....      7.3777944788 Eh

Convergence Acceleration:
 DIIS                   CNVDIIS         .... on
   Start iteration      DIISMaxIt       ....    12
   Startup error        DIISStart       ....  0.200000
   # of expansion vecs  DIISMaxEq       ....     5
   Bias factor          DIISBfac        ....   1.050
   Max. coefficient     DIISMaxC        ....  10.000
 Newton-Raphson         CNVNR           .... off
 SOSCF                  CNVSOSCF        .... on
   Start iteration      SOSCFMaxIt      ....   150
   Startup grad/error   SOSCFStart      ....  0.003300
 Level Shifting         CNVShift        .... on
   Level shift para.    LevelShift      ....    0.2500
   Turn off err/grad.   ShiftErr        ....    0.0010
 Zerner damping         CNVZerner       .... off
 Static damping         CNVDamp         .... on
   Fraction old density DampFac         ....    0.7000
   Max. Damping (<1)    DampMax         ....    0.9800
   Min. Damping (>=0)   DampMin         ....    0.0000
   Turn off err/grad.   DampErr         ....    0.1000
 Fernandez-Rico         CNVRico         .... off

SCF Procedure:
 Maximum # iterations   MaxIter         ....   125
 SCF integral mode      SCFMode         .... Direct
   Integral package                     .... LIBINT
 Reset frequency        DirectResetFreq ....    20
 Integral Threshold     Thresh          ....  1.000e-10 Eh
 Primitive CutOff       TCut            ....  1.000e-11 Eh

Convergence Tolerance:
 Convergence Check Mode ConvCheckMode   .... Total+1el-Energy
 Convergence forced     ConvForced      .... 0
 Energy Change          TolE            ....  1.000e-06 Eh
 1-El. energy change                    ....  1.000e-03 Eh
 Orbital Gradient       TolG            ....  5.000e-05
 Orbital Rotation angle TolX            ....  5.000e-05
 DIIS Error             TolErr          ....  1.000e-06


Diagonalization of the overlap matrix:
Smallest eigenvalue                        ... 3.326e-04
Time for diagonalization                   ...    0.002 sec
Threshold for overlap eigenvalues          ... 1.000e-08
Number of eigenvalues below threshold      ... 0
Time for construction of square roots      ...    0.001 sec
Total time needed                          ...    0.003 sec

-------------------
DFT GRID GENERATION
-------------------

General Integration Accuracy     IntAcc      ...  4.670
Radial Grid Type                 RadialGrid  ... Gauss-Chebyshev
Angular Grid (max. acc.)         AngularGrid ... Lebedev-302
Angular grid pruning method      GridPruning ... 3 (G Style)
Weight generation scheme         WeightScheme... Becke
Basis function cutoff            BFCut       ...    1.0000e-10
Integration weight cutoff        WCut        ...    1.0000e-14
Grids for H and He will be reduced by one unit

# of grid points (after initial pruning)     ...  16310 (   0.0 sec)
# of grid points (after weights+screening)   ...  16075 (   0.0 sec)
nearest neighbour list constructed           ...    0.0 sec
Grid point re-assignment to atoms done       ...    0.0 sec
Grid point division into batches done        ...    0.1 sec
Reduced shell lists constructed in    0.1 sec

Total number of grid points                  ...    16075
Total number of batches                      ...      253
Average number of points per batch           ...       63
Average number of grid points per atom       ...     4019
Average number of shells per batch           ...    29.50 (86.76%)
Average number of basis functions per batch  ...    78.00 (88.64%)
Average number of large shells per batch     ...    28.67 (97.18%)
Average number of large basis fcns per batch ...    75.17 (96.37%)
Average number of aux-shells per batch       ...    29.50 (68.60%)
Average number of aux functions per batch    ...    78.00 (60.47%)
Maximum spatial batch extension              ...   3.31,  3.03, 23.21 au
Average spatial batch extension              ...   0.09,  0.10,  0.26 au

Time for grid setup =    0.128 sec

------------------------------
INITIAL GUESS: MODEL POTENTIAL
------------------------------
Loading Hartree-Fock densities                     ... done
Calculating cut-offs                               ... done
Setting up the integral package                    ... done
Initializing the effective Hamiltonian             ... done
Starting the Coulomb interaction                   ... done (   0.0 sec)
Reading the grid                                   ... done
Mapping shells                                     ... done
Starting the XC term evaluation                    ... done (   0.0 sec)
  promolecular density results
     # of electrons  =      7.998534963
     EX              =     -4.633976726
     EC              =     -0.006288644
     EX+EC           =     -4.640265370
Transforming the Hamiltonian                       ... done (   0.0 sec)
Diagonalizing the Hamiltonian                      ... done (   0.0 sec)
Back transforming the eigenvectors                 ... done (   0.0 sec)
Now organizing SCF variables                       ... done
                      ------------------
                      INITIAL GUESS DONE (   0.3 sec)
                      ------------------
--------------
SCF ITERATIONS
--------------
ITER       Energy         Delta-E        Max-DP      RMS-DP      [F,P]     Damp
  0    -26.4816415288   0.000000000000 0.03192051  0.00071858  0.0936888 0.7000
  1    -26.4680665110   0.013575017804 0.02990577  0.00072360  0.0888443 0.7000
                               ***Turning on DIIS***
  2    -26.4713641854  -0.003297674444 0.06743262  0.00178752  0.0625393 0.0000
  3    -26.5043670640  -0.033002878547 0.02306435  0.00050257  0.0376762 0.0000
  4    -26.5072121975  -0.002845133565 0.00613020  0.00019659  0.0140635 0.0000
  5    -26.5076196251  -0.000407427594 0.00164078  0.00007695  0.0049991 0.0000
                      *** Initiating the SOSCF procedure ***
                           *** Shutting down DIIS ***
                      *** Re-Reading the Fockian *** 
                      *** Removing any level shift *** 
ITER      Energy       Delta-E        Grad      Rot      Max-DP    RMS-DP
  6    -26.50767243  -0.0000528046  0.000510  0.000510  0.000814  0.000024
  7    -26.50767821  -0.0000057828  0.000199  0.000352  0.000281  0.000014
                 **** Energy Check signals convergence ****
              ***Rediagonalizing the Fockian in SOSCF/NRSCF***

               *****************************************************
               *                     SUCCESS                       *
               *           SCF CONVERGED AFTER   8 CYCLES          *
               *****************************************************


----------------
TOTAL SCF ENERGY
----------------

Total Energy       :          -26.50767887 Eh            -721.31061 eV

Components:
Nuclear Repulsion  :            7.37779448 Eh             200.75999 eV
Electronic Energy  :          -33.88547335 Eh            -922.07061 eV
One Electron Energy:          -48.96968693 Eh           -1332.53293 eV
Two Electron Energy:           15.08421358 Eh             410.46232 eV

Virial components:
Potential Energy   :          -52.88205060 Eh           -1438.99375 eV
Kinetic Energy     :           26.37437173 Eh             717.68314 eV
Virial Ratio       :            2.00505442


DFT components:
N(Alpha)           :        4.000006248349 electrons
N(Beta)            :        4.000006248349 electrons
N(Total)           :        8.000012496697 electrons
E(X)               :       -1.419304071990 Eh       
E(C)               :       -0.115309707000 Eh       
E(XC)              :       -1.534613778991 Eh       
DFET-embed. en.    :        0.000000000000 Eh       

---------------
SCF CONVERGENCE
---------------

  Last Energy change         ...   -6.6171e-07  Tolerance :   1.0000e-06
  Last MAX-Density change    ...    1.8234e-04  Tolerance :   1.0000e-05
  Last RMS-Density change    ...    5.2044e-06  Tolerance :   1.0000e-06
  Last Orbital Gradient      ...    7.2265e-05  Tolerance :   5.0000e-05
  Last Orbital Rotation      ...    4.8822e-05  Tolerance :   5.0000e-05

             **** THE GBW FILE WAS UPDATED (169_b.gbw) ****
             **** DENSITY FILE WAS UPDATED (169_b.scfp) ****
             **** ENERGY FILE WAS UPDATED (169_b.en.tmp) ****
             **** THE GBW FILE WAS UPDATED (169_b.gbw) ****
             **** DENSITY FILE WAS UPDATED (169_b.scfp) ****
----------------
ORBITAL ENERGIES
----------------

  NO   OCC          E(Eh)            E(eV) 
   0   2.0000      -7.313646      -199.0144 
   1   2.0000      -0.637830       -17.3562 
   2   2.0000      -0.448456       -12.2031 
   3   2.0000      -0.448456       -12.2031 
   4   0.0000       0.005508         0.1499 
   5   0.0000       0.035074         0.9544 
   6   0.0000       0.115728         3.1491 
   7   0.0000       0.115732         3.1492 
   8   0.0000       0.129308         3.5186 
   9   0.0000       0.129316         3.5189 
  10   0.0000       0.143731         3.9111 
  11   0.0000       0.152601         4.1525 
  12   0.0000       0.152609         4.1527 
  13   0.0000       0.195712         5.3256 
  14   0.0000       0.209223         5.6932 
  15   0.0000       0.290073         7.8933 
  16   0.0000       0.296997         8.0817 
  17   0.0000       0.297002         8.0818 
  18   0.0000       0.325384         8.8542 
  19   0.0000       0.340237         9.2583 
  20   0.0000       0.340240         9.2584 
  21   0.0000       0.349791         9.5183 
  22   0.0000       0.349806         9.5187 
  23   0.0000       0.375302        10.2125 
  24   0.0000       0.422735        11.5032 
  25   0.0000       0.445644        12.1266 
  26   0.0000       0.445650        12.1267 
  27   0.0000       0.619591        16.8599 
  28   0.0000       0.638637        17.3782 
  29   0.0000       0.638646        17.3784 
  30   0.0000       0.646775        17.5997 
  31   0.0000       0.646779        17.5998 
  32   0.0000       0.801897        21.8207 
  33   0.0000       0.980113        26.6702 
  34   0.0000       0.980118        26.6704 
  35   0.0000       1.035297        28.1719 
  36   0.0000       1.062824        28.9209 
  37   0.0000       1.110569        30.2201 
  38   0.0000       1.114953        30.3394 
  39   0.0000       1.114988        30.3404 
  40   0.0000       1.171132        31.8681 
  41   0.0000       1.171135        31.8682 
  42   0.0000       1.194555        32.5055 
  43   0.0000       1.364048        37.1176 
  44   0.0000       1.364060        37.1180 
  45   0.0000       1.599693        43.5298 
  46   0.0000       1.642396        44.6919 
  47   0.0000       1.642399        44.6919 
  48   0.0000       2.040825        55.5337 
  49   0.0000       2.040842        55.5341 
  50   0.0000       2.114120        57.5281 
  51   0.0000       2.133321        58.0506 
  52   0.0000       2.133327        58.0508 
  53   0.0000       2.164639        58.9028 
  54   0.0000       2.192796        59.6690 
  55   0.0000       2.192801        59.6692 
  56   0.0000       2.456390        66.8418 
  57   0.0000       2.588850        70.4462 
  58   0.0000       2.588876        70.4469 
  59   0.0000       2.597454        70.6803 
  60   0.0000       3.131405        85.2099 
  61   0.0000       3.131434        85.2106 
  62   0.0000       3.281904        89.3051 
  63   0.0000       3.372875        91.7806 
  64   0.0000       3.679805       100.1326 
  65   0.0000       3.679811       100.1327 
  66   0.0000       3.790931       103.1565 
  67   0.0000       3.790938       103.1567 
  68   0.0000       3.940486       107.2261 
  69   0.0000       4.060941       110.5038 
  70   0.0000       4.102168       111.6257 
  71   0.0000       4.136158       112.5506 
  72   0.0000       4.136166       112.5508 
  73   0.0000       4.228632       115.0669 
  74   0.0000       4.228636       115.0670 
  75   0.0000       4.288627       116.6995 
  76   0.0000       4.466796       121.5477 
  77   0.0000       4.466797       121.5477 
  78   0.0000       4.632731       126.0630 
  79   0.0000       4.632736       126.0632 
  80   0.0000       4.798267       130.5675 
  81   0.0000       4.798272       130.5676 
  82   0.0000       4.811453       130.9263 
  83   0.0000       4.989688       135.7763 
  84   0.0000       4.989690       135.7764 
  85   0.0000       5.326649       144.9455 
  86   0.0000       5.743312       156.2835 
  87   0.0000      16.105109       438.2423 

                    ********************************
                    * MULLIKEN POPULATION ANALYSIS *
                    ********************************

-----------------------
MULLIKEN ATOMIC CHARGES
-----------------------
   0 B :    0.034448
   1 H :   -0.011443
   2 H :   -0.011443
   3 H :   -0.011562
Sum of atomic charges:   -0.0000000

--------------------------------
MULLIKEN REDUCED ORBITAL CHARGES
--------------------------------
  0 B s       :     3.008006  s :     3.008006
      pz      :     0.000000  p :     1.874972
      px      :     0.937465
      py      :     0.937507
      dz2     :     0.007615  d :     0.077681
      dxz     :     0.000000
      dyz     :     0.000000
      dx2y2   :     0.035029
      dxy     :     0.035037
      f0      :     0.000000  f :     0.004894
      f+1     :     0.000872
      f-1     :     0.000872
      f+2     :    -0.000000
      f-2     :     0.000000
      f+3     :     0.003150
      f-3     :     0.000000
  1 H s       :     0.989924  s :     0.989924
      pz      :     0.000000  p :     0.020829
      px      :     0.009803
      py      :     0.011026
      dz2     :     0.000037  d :     0.000690
      dxz     :     0.000000
      dyz     :     0.000000
      dx2y2   :     0.000411
      dxy     :     0.000243
  2 H s       :     0.989924  s :     0.989924
      pz      :    -0.000000  p :     0.020829
      px      :     0.009803
      py      :     0.011026
      dz2     :     0.000037  d :     0.000690
      dxz     :     0.000000
      dyz     :     0.000000
      dx2y2   :     0.000411
      dxy     :     0.000243
  3 H s       :     0.990040  s :     0.990040
      pz      :    -0.000000  p :     0.020832
      px      :     0.011639
      py      :     0.009193
      dz2     :     0.000037  d :     0.000690
      dxz     :     0.000000
      dyz     :     0.000000
      dx2y2   :     0.000159
      dxy     :     0.000494


                     *******************************
                     * LOEWDIN POPULATION ANALYSIS *
                     *******************************

----------------------
LOEWDIN ATOMIC CHARGES
----------------------
   0 B :    0.252125
   1 H :   -0.084041
   2 H :   -0.084041
   3 H :   -0.084042

-------------------------------
LOEWDIN REDUCED ORBITAL CHARGES
-------------------------------
  0 B s       :     2.720370  s :     2.720370
      pz      :     0.000000  p :     1.808802
      px      :     0.904400
      py      :     0.904402
      dz2     :     0.024127  d :     0.199526
      dxz     :     0.000000
      dyz     :     0.000000
      dx2y2   :     0.087699
      dxy     :     0.087700
      f0      :     0.000000  f :     0.019177
      f+1     :     0.003488
      f-1     :     0.003488
      f+2     :     0.000000
      f-2     :     0.000000
      f+3     :     0.012202
      f-3     :     0.000000
  1 H s       :     0.870312  s :     0.870312
      pz      :     0.000000  p :     0.204516
      px      :     0.088495
      py      :     0.116020
      dz2     :     0.001226  d :     0.009214
      dxz     :     0.000000
      dyz     :     0.000000
      dx2y2   :     0.004090
      dxy     :     0.003899
  2 H s       :     0.870312  s :     0.870312
      pz      :     0.000000  p :     0.204516
      px      :     0.088495
      py      :     0.116020
      dz2     :     0.001226  d :     0.009214
      dxz     :     0.000000
      dyz     :     0.000000
      dx2y2   :     0.004090
      dxy     :     0.003899
  3 H s       :     0.870314  s :     0.870314
      pz      :     0.000000  p :     0.204514
      px      :     0.129782
      py      :     0.074732
      dz2     :     0.001226  d :     0.009214
      dxz     :     0.000000
      dyz     :     0.000000
      dx2y2   :     0.003803
      dxy     :     0.004185


                      *****************************
                      * MAYER POPULATION ANALYSIS *
                      *****************************

  NA   - Mulliken gross atomic population
  ZA   - Total nuclear charge
  QA   - Mulliken gross atomic charge
  VA   - Mayer's total valence
  BVA  - Mayer's bonded valence
  FA   - Mayer's free valence

  ATOM       NA         ZA         QA         VA         BVA        FA
  0 B      4.9656     5.0000     0.0344     2.9933     2.9933    -0.0000
  1 H      1.0114     1.0000    -0.0114     1.0115     1.0115    -0.0000
  2 H      1.0114     1.0000    -0.0114     1.0115     1.0115    -0.0000
  3 H      1.0116     1.0000    -0.0116     1.0115     1.0115    -0.0000

  Mayer bond orders larger than 0.100000
B(  0-B ,  1-H ) :   0.9978 B(  0-B ,  2-H ) :   0.9978 B(  0-B ,  3-H ) :   0.9978 


-------
TIMINGS
-------

Total SCF time: 0 days 0 hours 0 min 1 sec 

Total time                  ....       1.229 sec
Sum of individual times     ....       1.121 sec  ( 91.2%)

Fock matrix formation       ....       0.847 sec  ( 68.9%)
  XC integration            ....       0.090 sec  ( 10.6% of F)
    Basis function eval.    ....       0.013 sec  ( 14.6% of XC)
    Density eval.           ....       0.008 sec  (  8.5% of XC)
    XC-Functional eval.     ....       0.005 sec  (  5.5% of XC)
    XC-Potential eval.      ....       0.013 sec  ( 14.4% of XC)
Diagonalization             ....       0.008 sec  (  0.6%)
Density matrix formation    ....       0.004 sec  (  0.3%)
Population analysis         ....       0.003 sec  (  0.2%)
Initial guess               ....       0.127 sec  ( 10.3%)
Orbital Transformation      ....       0.000 sec  (  0.0%)
Orbital Orthonormalization  ....       0.000 sec  (  0.0%)
DIIS solution               ....       0.003 sec  (  0.3%)
SOSCF solution              ....       0.001 sec  (  0.1%)
Grid generation             ....       0.128 sec  ( 10.4%)


           ************************************************************
           *        Program running with 24 parallel MPI-processes    *
           *              working on a common directory               *
           ************************************************************

------------------------------------------------------------------------------
                                ORCA  MP2 
------------------------------------------------------------------------------

Freezing NCore=2 chemical core electrons

-------------
RI-MP2 ENERGY
-------------
Dimension of the basis                    ...   88
Memory devoted to MP2                     ... 5000 MB   
Data format for buffers                   ... DOUBLE
Compression type for matrix containers    ... UNCOMPRESSED
Scaling for aa/bb pairs                   ...   4.000e-01
Scaling for ab pairs                      ...   4.700e-01
Overall scaling of the MP2 energy         ...   1.000e+00
Calculating two index integrals           ... done (    0.001 sec)
Cholesky decomposition of V**-1           ... done (    0.005 sec)

-----------------
RI-TRANSFORMATION (AUX index driven)
-----------------

Dimension of the orbital-basis         ... 88
Dimension of the aux-basis             ... 209
Transformation of internal/external MOs...    1-   3 to    4-  87
Number Format for Storage              ... Double (8 Byte)
Integral mode                          ... Direct

First Phase: integral generation and transformation of MO indices
  Aux angular momentum 0               ... done (    0.000 sec)
  Aux angular momentum 1               ... done (    0.000 sec)
  Aux angular momentum 2               ... done (    0.001 sec)
  Aux angular momentum 3               ... done (    0.001 sec)
  Aux angular momentum 4               ... done (    0.001 sec)
Closing buffer VIA ( 0.00 GB; CompressionRatio= 0.99)
  Phase 1 completed in     0.111 sec
Second Phase: sorting and transformation of aux index

IA-Transformation
Memory available                       ... 5000 MB 
Max. # MO pairs treated in a batch     ... 1    
# of internal orbitals                 ... 3
# batches for internal orbitals        ... 1
Closing buffer IAV ( 0.00 GB; CompressionRatio= 1.00)
(ia|v) transformation done in     0.001 sec

  Phase 2 completed in     0.004 sec
RI-Integral transformation completed in     0.116 sec
Opening buffers                              ... done

Starting loop over batches of integrals:

Operator 0  - window                       ... (  1-  3)x(  4- 87)
Operator 0  - Memory available             ...  5000 MB
Operator 0  - Memory needed per MO         ...   0.1 MB
Operator 0  - Number of orbitals per batch ... 1
Operator 0  - Number of batches            ... 1

OPERATOR  0   PASS   0:  MOs     1 ...    1 +    2 ...    2 +    3 ...    3
  Reading integrals       ... ok
Time spent in pair loops =     0.004 sec
Deleting buffer (Ka|jb)[aa] ...done

-----------------------------------------------
 RI-MP2 CORRELATION ENERGY:     -0.058710445 Eh
-----------------------------------------------


-------
TIMINGS
-------

Total time                :    0.140 sec
Integral trafo            :    0.129 sec ( 92.2%)
I/O of integrals          :    0.000 sec (  0.1%)
K(i,j) Operators          :    0.000 sec (  0.1%)
T(i,j) pair energies      :    0.000 sec (  0.0%)
V-calculation             :    0.001 sec (  0.8%)
V**(-1/2)                 :    0.005 sec (  3.6%)
Gamma(ia|P)               :    0.000 sec (  0.0%)
Gamma-Trafo               :    0.000 sec (  0.0%)
D(virtual)                :    0.000 sec (  0.0%)
D(internal)               :    0.000 sec (  0.0%)
W(virtual)                :    0.000 sec (  0.0%)
W(internal)               :    0.000 sec (  0.0%)
L(virtual)                :    0.000 sec (  0.0%)
L(internal)               :    0.000 sec (  0.0%)
G(D)                      :    0.000 sec (  0.0%)
G(Z)                      :    0.000 sec (  0.0%)
Z-Vector Solution         :    0.000 sec (  0.0%)
Z-Vector Solution         :    0.000 sec (  0.0%)
3-Index Derivative 
+ Separable RIJ part      :    0.000 sec (  0.0%)
2-Index Derivative 
+ Separable RIJ part      :    0.000 sec (  0.0%)
Separable Gradient (X)    :    0.000 sec (  0.0%)


---------------------------------------
MP2 TOTAL ENERGY:      -26.566389319 Eh
---------------------------------------


-------------------------------------------------------------------------------
                          DFT DISPERSION CORRECTION                            
                                                                               
                              DFTD3 V3.1  Rev 1                                
                          USING Becke-Johnson damping                          
-------------------------------------------------------------------------------
The DSD-BLYP/2013 functional is recognized
Active option DFTDOPT                   ...         4   

molecular C6(AA) [au] = 119.561588 


            DFT-D V3
 parameters
 s6 scaling factor         :     0.5700 
 a1 scaling factor         :     0.0000 
 s8 scaling factor         :     0.0000 
 a2 scaling factor         :     5.4000 
 ad hoc parameters k1-k3   :    16.0000     1.3333    -4.0000 

 Edisp/kcal,au: -0.545330201997  -0.000869038901 
 E6   /kcal   :  -0.545330202 
 E8   /kcal   :  -0.000000000 
 % E8         :   0.000000000 

-------------------------   ----------------
Dispersion correction           -0.000869039
-------------------------   ----------------


-------------------------   --------------------
FINAL SINGLE POINT ENERGY       -26.567258358157
-------------------------   --------------------


                            ***************************************
                            *     ORCA property calculations      *
                            ***************************************


  WARNING: The energy has been calculated at the MP2 level but the densities
           used in the property calculations are still SCF densities
           MP2 response densities have not been calculated 
           use %mp2 Density relaxed end
           or  %mp2 Density unrelaxed end

                                    ---------------------
                                    Active property flags
                                    ---------------------
   (+) Dipole Moment


------------------------------------------------------------------------------
                       ORCA ELECTRIC PROPERTIES CALCULATION
------------------------------------------------------------------------------

Dipole Moment Calculation                       ... on
Quadrupole Moment Calculation                   ... off
Polarizability Calculation                      ... off
GBWName                                         ... 169_b.gbw
Electron density file                           ... 169_b.scfp
The origin for moment calculation is the CENTER OF MASS  = ( 0.000000,  0.000000  0.000000)

-------------
DIPOLE MOMENT
-------------
                                X             Y             Z
Electronic contribution:     -0.00000      -0.00000       0.00000
Nuclear contribution   :      0.00000       0.00000       0.00000
                        -----------------------------------------
Total Dipole Moment    :     -0.00000      -0.00000       0.00000
                        -----------------------------------------
Magnitude (a.u.)       :      0.00000
Magnitude (Debye)      :      0.00000



--------------------
Rotational spectrum 
--------------------
 
Rotational constants in cm-1:     7.741042     7.740977     3.870505 
Rotational constants in MHz : 232070.613118 232068.644801 116034.814478 

 Dipole components along the rotational axes: 
x,y,z [a.u.] :    -0.000000    -0.000000     0.000000 
x,y,z [Debye]:    -0.000000    -0.000000     0.000000 

 

Timings for individual modules:

Sum of individual times         ...        2.988 sec (=   0.050 min)
GTO integral calculation        ...        0.671 sec (=   0.011 min)  22.4 %
SCF iterations                  ...        1.630 sec (=   0.027 min)  54.6 %
MP2 module                      ...        0.687 sec (=   0.011 min)  23.0 %
                             ****ORCA TERMINATED NORMALLY****
TOTAL RUN TIME: 0 days 0 hours 0 minutes 3 seconds 624 msec
