
                                 *****************
                                 * O   R   C   A *
                                 *****************

           --- An Ab Initio, DFT and Semiempirical electronic structure package ---

                  #######################################################
                  #                        -***-                        #
                  #          Department of theory and spectroscopy      #
                  #               Directorship: Frank Neese             #
                  #        Max Planck Institute fuer Kohlenforschung    #
                  #                Kaiser Wilhelm Platz 1               #
                  #                 D-45470 Muelheim/Ruhr               #
                  #                      Germany                        #
                  #                                                     #
                  #                  All rights reserved                #
                  #                        -***-                        #
                  #######################################################


                         Program Version 4.2.0 -  RELEASE  -


 With contributions from (in alphabetic order):
   Daniel Aravena         : Magnetic Suceptibility
   Michael Atanasov       : Ab Initio Ligand Field Theory (pilot matlab implementation)
   Alexander A. Auer      : GIAO ZORA, VPT2
   Ute Becker             : Parallelization
   Giovanni Bistoni       : ED, misc. LED, open-shell LED, HFLED
   Martin Brehm           : Molecular dynamics
   Dmytro Bykov           : SCF Hessian
   Vijay G. Chilkuri      : MRCI spin determinant printing, contributions to CSF-ICE
   Dipayan Datta          : RHF DLPNO-CCSD density
   Achintya Kumar Dutta   : EOM-CC, STEOM-CC
   Dmitry Ganyushin       : Spin-Orbit,Spin-Spin,Magnetic field MRCI
   Miquel Garcia          : C-PCM Hessian, Gaussian charge scheme
   Yang Guo               : DLPNO-NEVPT2, CIM, IAO-localization
   Andreas Hansen         : Spin unrestricted coupled pair/coupled cluster methods
   Benjamin Helmich-Paris : CASSCF linear response (MC-RPA)
   Lee Huntington         : MR-EOM, pCC
   Robert Izsak           : Overlap fitted RIJCOSX, COSX-SCS-MP3, EOM
   Christian Kollmar      : KDIIS, OOCD, Brueckner-CCSD(T), CCSD density
   Simone Kossmann        : Meta GGA functionals, TD-DFT gradient, OOMP2, MP2 Hessian
   Martin Krupicka        : AUTO-CI
   Lucas Lang             : DCDCAS
   Dagmar Lenk            : GEPOL surface, SMD
   Dimitrios Liakos       : Extrapolation schemes; Compound Job, initial MDCI parallelization
   Dimitrios Manganas     : Further ROCIS development; embedding schemes
   Dimitrios Pantazis     : SARC Basis sets
   Taras Petrenko         : DFT Hessian,TD-DFT gradient, ASA, ECA, R-Raman, ABS, FL, XAS/XES, NRVS
   Peter Pinski           : DLPNO-MP2, DLPNO-MP2 Gradient
   Christoph Reimann      : Effective Core Potentials
   Marius Retegan         : Local ZFS, SOC
   Christoph Riplinger    : Optimizer, TS searches, QM/MM, DLPNO-CCSD(T), (RO)-DLPNO pert. Triples
   Tobias Risthaus        : Range-separated hybrids, TD-DFT gradient, RPA, STAB
   Michael Roemelt        : Original ROCIS implementation
   Masaaki Saitow         : Open-shell DLPNO-CCSD energy and density
   Barbara Sandhoefer     : DKH picture change effects
   Avijit Sen             : IP-ROCIS
   Kantharuban Sivalingam : CASSCF convergence, NEVPT2, FIC-MRCI
   Bernardo de Souza      : ESD, SOC TD-DFT
   Georgi Stoychev        : AutoAux, RI-MP2 NMR
   Willem Van den Heuvel  : Paramagnetic NMR
   Boris Wezisla          : Elementary symmetry handling
   Frank Wennmohs         : Technical directorship


 We gratefully acknowledge several colleagues who have allowed us to
 interface, adapt or use parts of their codes:
   Stefan Grimme, W. Hujo, H. Kruse,             : VdW corrections, initial TS optimization,
                  C. Bannwarth                     DFT functionals, gCP, sTDA/sTD-DF
   Ed Valeev, F. Pavosevic, A. Kumar             : LibInt (2-el integral package), F12 methods
   Garnet Chan, S. Sharma, J. Yang, R. Olivares  : DMRG
   Ulf Ekstrom                                   : XCFun DFT Library
   Mihaly Kallay                                 : mrcc  (arbitrary order and MRCC methods)
   Andreas Klamt, Michael Diedenhofen            : otool_cosmo (COSMO solvation model)
   Jiri Pittner, Ondrej Demel                    : Mk-CCSD
   Frank Weinhold                                : gennbo (NPA and NBO analysis)
   Christopher J. Cramer and Donald G. Truhlar   : smd solvation model
   Lars Goerigk                                  : TD-DFT with DH, B97 family of functionals
   V. Asgeirsson, H. Jonsson                     : NEB implementation
   FAccTs GmbH                                   : IRC, NEB, NEB-TS, Multilevel, MM, QM/MM, CI optimization
   S Lehtola, MJT Oliveira, MAL Marques          : LibXC Library


 Your calculation uses the libint2 library for the computation of 2-el integrals
 For citations please refer to: http://libint.valeyev.net

 Your ORCA version has been built with support for libXC version: 4.2.3
 For citations please refer to: https://tddft.org/programs/libxc/

 This ORCA versions uses:
   CBLAS   interface :  Fast vector & matrix operations
   LAPACKE interface :  Fast linear algebra routines
   SCALAPACK package :  Parallel linear algebra routines


Your calculation utilizes the atom-pairwise dispersion correction
with the Becke-Johnson damping scheme (D3BJ)
Cite in your paper:
S.Grimme, S.Ehrlich, L.Goerigk, J Comput Chem, (2011), 32, 1456–1465 
S.Grimme, J.Antony, S.Ehrlich and H.Krieg, J.Chem.Phys., 132, (2010), 154104 
   

----- Orbital basis set information -----
Your calculation utilizes the basis: def2-TZVPPD
   F. Weigend and R. Ahlrichs, Phys. Chem. Chem. Phys. 7, 3297 (2005).
   D. Rappoport and F. Furche, J. Chem. Phys. 133 134105 (2010).

----- AuxC basis set information -----
Your calculation utilizes the auxiliary basis: def2-TZVPPD/C
   A. Hellweg, C. Hattig, S. Hofener and W. Klopper, Theor. Chem. Acc. 117, 587 (2007).

----- AuxJK basis set information -----
Your calculation utilizes the auxiliary basis: def2/JK
   H-Ba, Hf-Rn: F. Weigend, J. Comput. Chem. 29, 167 (2008).

================================================================================
                                        WARNINGS
                       Please study these warnings very carefully!
================================================================================


WARNING: your system is open-shell and RHF/RKS was chosen
  ===> : WILL SWITCH to UHF/UKS


WARNING: No MP2 level density has been requested!
         To caclulate MP2 level properties use
         %mp2 Density relaxed end
         or
         %mp2 Density unrelaxed end
         Otherwise for double-hybrid DFT only the energy is correct!

WARNING: There are different parametrizations of Gershom Martin's DSD-DFs
         for use with and without D3(BJ)!
         You are using the D3(BJ) parametrized version,
         consistent with the 2013 article (S. Kozuch and J. M. L. Martin, JCC 2013, 34, 2327)

WARNING: The frozen-core approximation is turned on by default for 
         the MP2 part of double-hybrid DFT.

INFO   : the flag for use of LIBINT has been found!

================================================================================
                                       INPUT FILE
================================================================================
NAME = 172_o.in
|  1> #
|  2> # 172_o ri-DSD-BLYP/2013-D3BJ/Def2-TZVPPD
|  3> #
|  4> ! rijk ri-dsd-blyp/2013 d3bj def2-tzvppd def2/jk def2-tzvppd/c grid4 nofinalgrid
|  5> 
|  6> *xyz 0 3
|  7> O          0.00000        0.00000        0.61122
|  8> O          0.00000        0.00000       -0.61122
|  9> *
| 10> 
| 11> %maxcore 5000
| 12> 
| 13> %pal
| 14> nprocs = 24
| 15> end
| 16> 
| 17> 
| 18>                          ****END OF INPUT****
================================================================================

                       ****************************
                       * Single Point Calculation *
                       ****************************

---------------------------------
CARTESIAN COORDINATES (ANGSTROEM)
---------------------------------
  O      0.000000    0.000000    0.611220
  O      0.000000    0.000000   -0.611220

----------------------------
CARTESIAN COORDINATES (A.U.)
----------------------------
  NO LB      ZA    FRAG     MASS         X           Y           Z
   0 O     8.0000    0    15.999    0.000000    0.000000    1.155038
   1 O     8.0000    0    15.999    0.000000    0.000000   -1.155038

--------------------------------
INTERNAL COORDINATES (ANGSTROEM)
--------------------------------
 O      0   0   0     0.000000000000     0.00000000     0.00000000
 O      1   0   0     1.222440000000     0.00000000     0.00000000

---------------------------
INTERNAL COORDINATES (A.U.)
---------------------------
 O      0   0   0     0.000000000000     0.00000000     0.00000000
 O      1   0   0     2.310076815151     0.00000000     0.00000000

---------------------
BASIS SET INFORMATION
---------------------
There are 1 groups of distinct atoms

 Group   1 Type O   : 12s7p3d1f contracted to 6s4p3d1f pattern {621111/4111/111/1}

Atom   0O    basis set group =>   1
Atom   1O    basis set group =>   1
---------------------------------
AUXILIARY/C BASIS SET INFORMATION
---------------------------------
There are 1 groups of distinct atoms

 Group   1 Type O   : 9s7p6d4f1g contracted to 9s7p5d4f1g pattern {111111111/1111111/21111/1111/1}

Atom   0O    basis set group =>   1
Atom   1O    basis set group =>   1
----------------------------------
AUXILIARY/JK BASIS SET INFORMATION
----------------------------------
There are 1 groups of distinct atoms

 Group   1 Type O   : 14s10p6d2f1g contracted to 10s8p4d2f1g pattern {5111111111/31111111/3111/11/1}

Atom   0O    basis set group =>   1
Atom   1O    basis set group =>   1


           ************************************************************
           *        Program running with 24 parallel MPI-processes    *
           *              working on a common directory               *
           ************************************************************
------------------------------------------------------------------------------
                           ORCA GTO INTEGRAL CALCULATION
                           -- RI-GTO INTEGRALS CHOSEN --
------------------------------------------------------------------------------

                         BASIS SET STATISTICS AND STARTUP INFO

Gaussian basis set:
 # of primitive gaussian shells          ...   46
 # of primitive gaussian functions       ...  110
 # of contracted shells                  ...   28
 # of contracted basis functions         ...   80
 Highest angular momentum                ...    3
 Maximum contraction depth               ...    6
Auxiliary gaussian basis set:
 # of primitive gaussian shells          ...   66
 # of primitive gaussian functions       ...  194
 # of contracted shells                  ...   50
 # of contracted aux-basis functions     ...  154
 Highest angular momentum                ...    4
 Maximum contraction depth               ...    5
Ratio of auxiliary to basis functions    ...  1.93
Integral package used                  ... LIBINT
 One Electron integrals                  ... done
 Ordering auxiliary basis shells         ... done
 Integral threshhold             Thresh  ...  1.000e-10
 Primitive cut-off               TCut    ...  1.000e-11
 Pre-screening matrix                    ... done
 Shell pair data                         ... 
 Ordering of the shell pairs             ... done (   0.000 sec) 405 of 406 pairs
 Determination of significant pairs      ... done (   0.000 sec)
 Creation of shell pair data             ... done (   0.000 sec)
 Storage of shell pair data              ... done (   0.000 sec)
 Shell pair data done in (   0.000 sec)
 Computing two index integrals           ... done
 Cholesky decomposition of the V-matrix  ... done


Timings:
 Total evaluation time                   ...   0.164 sec (  0.003 min)
 One electron matrix time                ...   0.013 sec (  0.000 min) =  7.7%
 Schwartz matrix evaluation time         ...   0.118 sec (  0.002 min) = 71.8%
 Two index repulsion integral time       ...   0.012 sec (  0.000 min) =  7.6%
 Cholesky decomposition of V             ...   0.001 sec (  0.000 min) =  0.6%
 Three index repulsion integral time     ...   0.000 sec (  0.000 min) =  0.0%



           ************************************************************
           *        Program running with 24 parallel MPI-processes    *
           *              working on a common directory               *
           ************************************************************
-------------------------------------------------------------------------------
                                 ORCA SCF
-------------------------------------------------------------------------------

------------
SCF SETTINGS
------------
Hamiltonian:
 Density Functional     Method          .... DFT(GTOs)
 Exchange Functional    Exchange        .... B88
   X-Alpha parameter    XAlpha          ....  0.666667
   Becke's b parameter  XBeta           ....  0.004200
 Correlation Functional Correlation     .... LYP
 LDA part of GGA corr.  LDAOpt          .... VWN-5
 Gradients option       PostSCFGGA      .... off
 Hybrid DFT is turned on
   Fraction HF Exchange ScalHFX         ....  0.710000
   Scaling of DF-GGA-X  ScalDFX         ....  0.290000
   Scaling of DF-GGA-C  ScalDFC         ....  0.540000
   Scaling of DF-LDA-C  ScalLDAC        ....  0.540000
   Perturbative correction              ....  1.000000
   Density functional embedding theory  .... OFF
 RI-approximation to the Coulomb term is turned on
   Number of auxiliary basis functions  .... 154
   RI-JK (J+K treated both via RI)      .... on


General Settings:
 Integral files         IntName         .... 172_o
 Hartree-Fock type      HFTyp           .... UHF
 Total Charge           Charge          ....    0
 Multiplicity           Mult            ....    3
 Number of Electrons    NEL             ....   16
 Basis Dimension        Dim             ....   80
 Nuclear Repulsion      ENuc            ....     27.7047064324 Eh

Convergence Acceleration:
 DIIS                   CNVDIIS         .... on
   Start iteration      DIISMaxIt       ....    12
   Startup error        DIISStart       ....  0.200000
   # of expansion vecs  DIISMaxEq       ....     5
   Bias factor          DIISBfac        ....   1.050
   Max. coefficient     DIISMaxC        ....  10.000
 Newton-Raphson         CNVNR           .... off
 SOSCF                  CNVSOSCF        .... off
 Level Shifting         CNVShift        .... on
   Level shift para.    LevelShift      ....    0.2500
   Turn off err/grad.   ShiftErr        ....    0.0010
 Zerner damping         CNVZerner       .... off
 Static damping         CNVDamp         .... on
   Fraction old density DampFac         ....    0.7000
   Max. Damping (<1)    DampMax         ....    0.9800
   Min. Damping (>=0)   DampMin         ....    0.0000
   Turn off err/grad.   DampErr         ....    0.1000
 Fernandez-Rico         CNVRico         .... off

SCF Procedure:
 Maximum # iterations   MaxIter         ....   125
 SCF integral mode      SCFMode         .... Direct
   Integral package                     .... LIBINT
 Reset frequency        DirectResetFreq ....    20
 Integral Threshold     Thresh          ....  1.000e-10 Eh
 Primitive CutOff       TCut            ....  1.000e-11 Eh

Convergence Tolerance:
 Convergence Check Mode ConvCheckMode   .... Total+1el-Energy
 Convergence forced     ConvForced      .... 0
 Energy Change          TolE            ....  1.000e-06 Eh
 1-El. energy change                    ....  1.000e-03 Eh
 DIIS Error             TolErr          ....  1.000e-06


Diagonalization of the overlap matrix:
Smallest eigenvalue                        ... 2.637e-04
Time for diagonalization                   ...    0.003 sec
Threshold for overlap eigenvalues          ... 1.000e-08
Number of eigenvalues below threshold      ... 0
Time for construction of square roots      ...    0.001 sec
Total time needed                          ...    0.004 sec

-------------------
DFT GRID GENERATION
-------------------

General Integration Accuracy     IntAcc      ...  4.670
Radial Grid Type                 RadialGrid  ... Gauss-Chebyshev
Angular Grid (max. acc.)         AngularGrid ... Lebedev-302
Angular grid pruning method      GridPruning ... 3 (G Style)
Weight generation scheme         WeightScheme... Becke
Basis function cutoff            BFCut       ...    1.0000e-10
Integration weight cutoff        WCut        ...    1.0000e-14
Grids for H and He will be reduced by one unit

# of grid points (after initial pruning)     ...  12424 (   0.0 sec)
# of grid points (after weights+screening)   ...  12396 (   0.0 sec)
nearest neighbour list constructed           ...    0.0 sec
Grid point re-assignment to atoms done       ...    0.0 sec
Grid point division into batches done        ...    0.1 sec
Reduced shell lists constructed in    0.1 sec

Total number of grid points                  ...    12396
Total number of batches                      ...      194
Average number of points per batch           ...       63
Average number of grid points per atom       ...     6198
Average number of shells per batch           ...     8.20 (29.29%)
Average number of basis functions per batch  ...    22.00 (27.50%)
Average number of large shells per batch     ...     4.90 (59.76%)
Average number of large basis fcns per batch ...    13.70 (62.27%)
Average number of aux-shells per batch       ...     8.20 (16.40%)
Average number of aux functions per batch    ...    22.00 (14.29%)
Maximum spatial batch extension              ...  19.94, 19.94, 11.34 au
Average spatial batch extension              ...   0.68,  0.68,  0.45 au

Time for grid setup =    0.107 sec

------------------------------
INITIAL GUESS: MODEL POTENTIAL
------------------------------
Loading Hartree-Fock densities                     ... done
Calculating cut-offs                               ... done
Setting up the integral package                    ... done
Initializing the effective Hamiltonian             ... done
Starting the Coulomb interaction                   ... done (   0.0 sec)
Reading the grid                                   ... done
Mapping shells                                     ... done
Starting the XC term evaluation                    ... done (   0.0 sec)
  promolecular density results
     # of electrons  =     15.999997739
     EX              =    -16.301862191
     EC              =     -0.065786904
     EX+EC           =    -16.367649096
Transforming the Hamiltonian                       ... done (   0.0 sec)
Diagonalizing the Hamiltonian                      ... done (   0.0 sec)
Back transforming the eigenvectors                 ... done (   0.0 sec)
Now organizing SCF variables                       ... done
                      ------------------
                      INITIAL GUESS DONE (   0.2 sec)
                      ------------------
--------------
SCF ITERATIONS
--------------
ITER       Energy         Delta-E        Max-DP      RMS-DP      [F,P]     Damp
  0   -149.9890341120   0.000000000000 0.00819517  0.00034849  0.0867139 0.7000
  1   -150.0017439231  -0.012709811034 0.00778696  0.00033440  0.0668553 0.7000
                               ***Turning on DIIS***
  2   -150.0111618276  -0.009417904543 0.01809465  0.00088609  0.0472802 0.0000
  3   -150.0215564465  -0.010394618853 0.00522254  0.00016830  0.0179180 0.0000
  4   -150.0223251573  -0.000768710887 0.00146258  0.00007733  0.0034992 0.0000
  5   -150.0224423541  -0.000117196769 0.00079969  0.00004961  0.0007221 0.0000
  6   -150.0224691060  -0.000026751874 0.00025231  0.00001340  0.0002454 0.0000
  7   -150.0224711172  -0.000002011209 0.00005649  0.00000291  0.0000478 0.0000
                 **** Energy Check signals convergence ****

               *****************************************************
               *                     SUCCESS                       *
               *           SCF CONVERGED AFTER   8 CYCLES          *
               *****************************************************


----------------
TOTAL SCF ENERGY
----------------

Total Energy       :         -150.02247121 Eh           -4082.31898 eV

Components:
Nuclear Repulsion  :           27.70470643 Eh             753.88339 eV
Electronic Energy  :         -177.72717764 Eh           -4836.20237 eV
One Electron Energy:         -261.06298325 Eh           -7103.88493 eV
Two Electron Energy:           83.33580561 Eh            2267.68256 eV

Virial components:
Potential Energy   :         -299.61036086 Eh           -8152.81240 eV
Kinetic Energy     :          149.58788965 Eh            4070.49342 eV
Virial Ratio       :            2.00290519


DFT components:
N(Alpha)           :        9.000000386401 electrons
N(Beta)            :        7.000000725856 electrons
N(Total)           :       16.000001112257 electrons
E(X)               :       -4.767927854005 Eh       
E(C)               :       -0.307550896304 Eh       
E(XC)              :       -5.075478750309 Eh       
DFET-embed. en.    :        0.000000000000 Eh       

---------------
SCF CONVERGENCE
---------------

  Last Energy change         ...   -8.9867e-08  Tolerance :   1.0000e-06
  Last MAX-Density change    ...    8.4447e-06  Tolerance :   1.0000e-05
  Last RMS-Density change    ...    4.2602e-07  Tolerance :   1.0000e-06
  Last DIIS Error            ...    5.8081e-06  Tolerance :   1.0000e-06

             **** THE GBW FILE WAS UPDATED (172_o.gbw) ****
             **** DENSITY FILE WAS UPDATED (172_o.scfp) ****
             **** ENERGY FILE WAS UPDATED (172_o.en.tmp) ****
----------------------
UHF SPIN CONTAMINATION
----------------------

Warning: in a DFT calculation there is little theoretical justification to 
         calculate <S**2> as in Hartree-Fock theory. We will do it anyways
         but you should keep in mind that the values have only limited relevance

Expectation value of <S**2>     :     2.030885
Ideal value S*(S+1) for S=1.0   :     2.000000
Deviation                       :     0.030885

             **** THE GBW FILE WAS UPDATED (172_o.gbw) ****
             **** DENSITY FILE WAS UPDATED (172_o.scfp) ****
----------------
ORBITAL ENERGIES
----------------
                 SPIN UP ORBITALS
  NO   OCC          E(Eh)            E(eV) 
   0   1.0000     -20.237397      -550.6876 
   1   1.0000     -20.236941      -550.6752 
   2   1.0000      -1.561344       -42.4863 
   3   1.0000      -1.083656       -29.4878 
   4   1.0000      -0.743816       -20.2403 
   5   1.0000      -0.743816       -20.2403 
   6   1.0000      -0.691917       -18.8280 
   7   1.0000      -0.479223       -13.0403 
   8   1.0000      -0.479223       -13.0403 
   9   0.0000       0.069359         1.8874 
  10   0.0000       0.094143         2.5618 
  11   0.0000       0.104709         2.8493 
  12   0.0000       0.104709         2.8493 
  13   0.0000       0.147805         4.0220 
  14   0.0000       0.147805         4.0220 
  15   0.0000       0.150629         4.0988 
  16   0.0000       0.248408         6.7595 
  17   0.0000       0.374268        10.1843 
  18   0.0000       0.378964        10.3121 
  19   0.0000       0.378965        10.3122 
  20   0.0000       0.469823        12.7845 
  21   0.0000       0.518064        14.0972 
  22   0.0000       0.518064        14.0972 
  23   0.0000       0.522506        14.2181 
  24   0.0000       0.531849        14.4724 
  25   0.0000       0.531849        14.4724 
  26   0.0000       0.547041        14.8857 
  27   0.0000       0.547043        14.8858 
  28   0.0000       0.616812        16.7843 
  29   0.0000       0.616812        16.7843 
  30   0.0000       0.703554        19.1447 
  31   0.0000       0.873298        23.7636 
  32   0.0000       0.973328        26.4856 
  33   0.0000       0.973328        26.4856 
  34   0.0000       0.991244        26.9731 
  35   0.0000       1.321566        35.9616 
  36   0.0000       1.610350        43.8199 
  37   0.0000       1.610350        43.8199 
  38   0.0000       1.614760        43.9398 
  39   0.0000       1.614760        43.9398 
  40   0.0000       1.934472        52.6397 
  41   0.0000       1.934472        52.6397 
  42   0.0000       2.082510        56.6680 
  43   0.0000       2.295718        62.4697 
  44   0.0000       2.295718        62.4697 
  45   0.0000       2.569749        69.9264 
  46   0.0000       2.728072        74.2346 
  47   0.0000       2.728072        74.2346 
  48   0.0000       3.009505        81.8928 
  49   0.0000       3.225674        87.7751 
  50   0.0000       3.225674        87.7751 
  51   0.0000       3.355798        91.3159 
  52   0.0000       3.420138        93.0667 
  53   0.0000       4.503553       122.5479 
  54   0.0000       4.834983       131.5666 
  55   0.0000       4.834984       131.5666 
  56   0.0000       4.941481       134.4645 
  57   0.0000       4.941481       134.4645 
  58   0.0000       5.160829       140.4333 
  59   0.0000       5.160829       140.4333 
  60   0.0000       5.242359       142.6518 
  61   0.0000       5.389098       146.6448 
  62   0.0000       5.389098       146.6448 
  63   0.0000       5.932999       161.4451 
  64   0.0000       5.932999       161.4451 
  65   0.0000       6.469380       176.0408 
  66   0.0000       6.469385       176.0409 
  67   0.0000       6.564595       178.6317 
  68   0.0000       6.564595       178.6317 
  69   0.0000       6.635745       180.5678 
  70   0.0000       6.635751       180.5680 
  71   0.0000       6.776586       184.4003 
  72   0.0000       6.776586       184.4003 
  73   0.0000       6.776784       184.4057 
  74   0.0000       7.463505       203.0923 
  75   0.0000       7.463505       203.0923 
  76   0.0000       7.726406       210.2462 
  77   0.0000       8.948070       243.4894 
  78   0.0000      44.273122      1204.7329 
  79   0.0000      44.936946      1222.7965 

                 SPIN DOWN ORBITALS
  NO   OCC          E(Eh)            E(eV) 
   0   1.0000     -20.192139      -549.4560 
   1   1.0000     -20.191282      -549.4327 
   2   1.0000      -1.459701       -39.7205 
   3   1.0000      -0.919518       -25.0214 
   4   1.0000      -0.639868       -17.4117 
   5   1.0000      -0.538745       -14.6600 
   6   1.0000      -0.538745       -14.6600 
   7   0.0000       0.005671         0.1543 
   8   0.0000       0.005671         0.1543 
   9   0.0000       0.071906         1.9567 
  10   0.0000       0.097377         2.6498 
  11   0.0000       0.110730         3.0131 
  12   0.0000       0.110730         3.0131 
  13   0.0000       0.149803         4.0763 
  14   0.0000       0.159733         4.3465 
  15   0.0000       0.159733         4.3465 
  16   0.0000       0.266579         7.2540 
  17   0.0000       0.380877        10.3642 
  18   0.0000       0.380877        10.3642 
  19   0.0000       0.407859        11.0984 
  20   0.0000       0.469363        12.7720 
  21   0.0000       0.536825        14.6078 
  22   0.0000       0.536825        14.6078 
  23   0.0000       0.543562        14.7911 
  24   0.0000       0.544310        14.8114 
  25   0.0000       0.544310        14.8114 
  26   0.0000       0.554745        15.0954 
  27   0.0000       0.554745        15.0954 
  28   0.0000       0.657702        17.8970 
  29   0.0000       0.657702        17.8970 
  30   0.0000       0.720518        19.6063 
  31   0.0000       0.887008        24.1367 
  32   0.0000       0.990031        26.9401 
  33   0.0000       1.007777        27.4230 
  34   0.0000       1.007777        27.4230 
  35   0.0000       1.341178        36.4953 
  36   0.0000       1.653129        44.9839 
  37   0.0000       1.653129        44.9839 
  38   0.0000       1.665964        45.3332 
  39   0.0000       1.665964        45.3332 
  40   0.0000       2.014674        54.8221 
  41   0.0000       2.014675        54.8221 
  42   0.0000       2.114561        57.5401 
  43   0.0000       2.345375        63.8209 
  44   0.0000       2.345375        63.8209 
  45   0.0000       2.590121        70.4808 
  46   0.0000       2.822051        76.7919 
  47   0.0000       2.822051        76.7919 
  48   0.0000       3.050879        83.0186 
  49   0.0000       3.306390        89.9714 
  50   0.0000       3.306390        89.9714 
  51   0.0000       3.386236        92.1442 
  52   0.0000       3.461566        94.1940 
  53   0.0000       4.533546       123.3641 
  54   0.0000       4.873880       132.6250 
  55   0.0000       4.873880       132.6250 
  56   0.0000       4.970610       135.2572 
  57   0.0000       4.970610       135.2572 
  58   0.0000       5.224828       142.1748 
  59   0.0000       5.224828       142.1748 
  60   0.0000       5.283588       143.7737 
  61   0.0000       5.457823       148.5149 
  62   0.0000       5.457823       148.5149 
  63   0.0000       5.983418       162.8171 
  64   0.0000       5.983418       162.8171 
  65   0.0000       6.585810       179.2090 
  66   0.0000       6.585815       179.2091 
  67   0.0000       6.629337       180.3934 
  68   0.0000       6.629337       180.3934 
  69   0.0000       6.746170       183.5726 
  70   0.0000       6.746176       183.5728 
  71   0.0000       6.820449       185.5938 
  72   0.0000       6.836915       186.0419 
  73   0.0000       6.836915       186.0419 
  74   0.0000       7.493902       203.9194 
  75   0.0000       7.493902       203.9194 
  76   0.0000       7.755823       211.0467 
  77   0.0000       8.973477       244.1807 
  78   0.0000      44.301736      1205.5115 
  79   0.0000      44.964603      1223.5490 

                    ********************************
                    * MULLIKEN POPULATION ANALYSIS *
                    ********************************

--------------------------------------------
MULLIKEN ATOMIC CHARGES AND SPIN POPULATIONS
--------------------------------------------
   0 O :   -0.000000    0.999999
   1 O :    0.000000    1.000001
Sum of atomic charges         :   -0.0000000
Sum of atomic spin populations:    2.0000000

-----------------------------------------------------
MULLIKEN REDUCED ORBITAL CHARGES AND SPIN POPULATIONS
-----------------------------------------------------
CHARGE
  0 O s       :     3.926124  s :     3.926124
      pz      :     1.058523  p :     4.023535
      px      :     1.482506
      py      :     1.482506
      dz2     :     0.013296  d :     0.045503
      dxz     :     0.016104
      dyz     :     0.016104
      dx2y2   :     0.000000
      dxy     :     0.000000
      f0      :     0.002057  f :     0.004839
      f+1     :     0.001391
      f-1     :     0.001391
      f+2     :     0.000000
      f-2     :     0.000000
      f+3     :     0.000000
      f-3     :     0.000000
  1 O s       :     3.926124  s :     3.926124
      pz      :     1.058523  p :     4.023535
      px      :     1.482506
      py      :     1.482506
      dz2     :     0.013296  d :     0.045503
      dxz     :     0.016104
      dyz     :     0.016104
      dx2y2   :     0.000000
      dxy     :     0.000000
      f0      :     0.002057  f :     0.004839
      f+1     :     0.001391
      f-1     :     0.001391
      f+2     :     0.000000
      f-2     :     0.000000
      f+3     :     0.000000
      f-3     :     0.000000

SPIN
  0 O s       :     0.017930  s :     0.017930
      pz      :    -0.017440  p :     1.004616
      px      :     0.511028
      py      :     0.511028
      dz2     :    -0.000157  d :    -0.021971
      dxz     :    -0.010907
      dyz     :    -0.010907
      dx2y2   :     0.000000
      dxy     :     0.000000
      f0      :    -0.000333  f :    -0.000576
      f+1     :    -0.000122
      f-1     :    -0.000122
      f+2     :    -0.000000
      f-2     :     0.000000
      f+3     :     0.000000
      f-3     :     0.000000
  1 O s       :     0.017931  s :     0.017931
      pz      :    -0.017440  p :     1.004617
      px      :     0.511028
      py      :     0.511028
      dz2     :    -0.000157  d :    -0.021971
      dxz     :    -0.010907
      dyz     :    -0.010907
      dx2y2   :     0.000000
      dxy     :     0.000000
      f0      :    -0.000333  f :    -0.000576
      f+1     :    -0.000122
      f-1     :    -0.000122
      f+2     :     0.000000
      f-2     :    -0.000000
      f+3     :     0.000000
      f-3     :     0.000000


                     *******************************
                     * LOEWDIN POPULATION ANALYSIS *
                     *******************************

-------------------------------------------
LOEWDIN ATOMIC CHARGES AND SPIN POPULATIONS
-------------------------------------------
   0 O :   -0.000000    1.000000
   1 O :    0.000000    1.000000

----------------------------------------------------
LOEWDIN REDUCED ORBITAL CHARGES AND SPIN POPULATIONS
----------------------------------------------------
CHARGE
  0 O s       :     3.552880  s :     3.552880
      pz      :     1.283955  p :     4.090836
      px      :     1.403440
      py      :     1.403440
      dz2     :     0.156004  d :     0.338526
      dxz     :     0.091261
      dyz     :     0.091261
      dx2y2   :     0.000000
      dxy     :     0.000000
      f0      :     0.007161  f :     0.017758
      f+1     :     0.005299
      f-1     :     0.005299
      f+2     :     0.000000
      f-2     :     0.000000
      f+3     :     0.000000
      f-3     :     0.000000
  1 O s       :     3.552880  s :     3.552880
      pz      :     1.283955  p :     4.090836
      px      :     1.403440
      py      :     1.403440
      dz2     :     0.156004  d :     0.338526
      dxz     :     0.091261
      dyz     :     0.091261
      dx2y2   :     0.000000
      dxy     :     0.000000
      f0      :     0.007161  f :     0.017758
      f+1     :     0.005299
      f-1     :     0.005299
      f+2     :     0.000000
      f-2     :     0.000000
      f+3     :     0.000000
      f-3     :     0.000000

SPIN
  0 O s       :     0.017575  s :     0.017575
      pz      :    -0.021326  p :     0.894691
      px      :     0.458008
      py      :     0.458008
      dz2     :     0.003792  d :     0.082818
      dxz     :     0.039513
      dyz     :     0.039513
      dx2y2   :     0.000000
      dxy     :     0.000000
      f0      :    -0.000042  f :     0.004916
      f+1     :     0.002479
      f-1     :     0.002479
      f+2     :    -0.000000
      f-2     :     0.000000
      f+3     :     0.000000
      f-3     :     0.000000
  1 O s       :     0.017575  s :     0.017575
      pz      :    -0.021326  p :     0.894691
      px      :     0.458008
      py      :     0.458008
      dz2     :     0.003792  d :     0.082818
      dxz     :     0.039513
      dyz     :     0.039513
      dx2y2   :     0.000000
      dxy     :     0.000000
      f0      :    -0.000042  f :     0.004916
      f+1     :     0.002479
      f-1     :     0.002479
      f+2     :     0.000000
      f-2     :    -0.000000
      f+3     :     0.000000
      f-3     :     0.000000


                      *****************************
                      * MAYER POPULATION ANALYSIS *
                      *****************************

  NA   - Mulliken gross atomic population
  ZA   - Total nuclear charge
  QA   - Mulliken gross atomic charge
  VA   - Mayer's total valence
  BVA  - Mayer's bonded valence
  FA   - Mayer's free valence

  ATOM       NA         ZA         QA         VA         BVA        FA
  0 O      8.0000     8.0000    -0.0000     2.3055     1.7030     0.6025
  1 O      8.0000     8.0000     0.0000     2.3055     1.7030     0.6025

  Mayer bond orders larger than 0.100000
B(  0-O ,  1-O ) :   1.7030 

-------
TIMINGS
-------

Total SCF time: 0 days 0 hours 0 min 1 sec 

Total time                  ....       1.164 sec
Sum of individual times     ....       1.066 sec  ( 91.6%)

Fock matrix formation       ....       0.815 sec  ( 70.1%)
  XC integration            ....       0.093 sec  ( 11.4% of F)
    Basis function eval.    ....       0.012 sec  ( 13.0% of XC)
    Density eval.           ....       0.011 sec  ( 12.3% of XC)
    XC-Functional eval.     ....       0.007 sec  (  7.8% of XC)
    XC-Potential eval.      ....       0.018 sec  ( 19.6% of XC)
Diagonalization             ....       0.016 sec  (  1.4%)
Density matrix formation    ....       0.004 sec  (  0.3%)
Population analysis         ....       0.003 sec  (  0.3%)
Initial guess               ....       0.113 sec  (  9.8%)
Orbital Transformation      ....       0.000 sec  (  0.0%)
Orbital Orthonormalization  ....       0.000 sec  (  0.0%)
DIIS solution               ....       0.008 sec  (  0.6%)
Grid generation             ....       0.107 sec  (  9.2%)


           ************************************************************
           *        Program running with 24 parallel MPI-processes    *
           *              working on a common directory               *
           ************************************************************

------------------------------------------------------------------------------
                                ORCA  MP2 
------------------------------------------------------------------------------

Freezing NCore=4 chemical core electrons

-------------
RI-MP2 ENERGY
-------------
Dimension of the basis                    ...   80
Memory devoted to MP2                     ... 5000 MB   
Data format for buffers                   ... DOUBLE
Compression type for matrix containers    ... UNCOMPRESSED
Scaling for aa/bb pairs                   ...   4.000e-01
Scaling for ab pairs                      ...   4.700e-01
Overall scaling of the MP2 energy         ...   1.000e+00
Calculating two index integrals           ... done (    0.001 sec)
Cholesky decomposition of V**-1           ... done (    0.004 sec)

-----------------
RI-TRANSFORMATION (AUX index driven)
-----------------

Dimension of the orbital-basis         ... 80
Dimension of the aux-basis             ... 184
Transformation of internal/external MOs...    2-   8 to    9-  79
Number Format for Storage              ... Double (8 Byte)
Integral mode                          ... Direct

First Phase: integral generation and transformation of MO indices
  Aux angular momentum 0               ... done (    0.000 sec)
  Aux angular momentum 1               ... done (    0.000 sec)
  Aux angular momentum 2               ... done (    0.000 sec)
  Aux angular momentum 3               ... done (    0.001 sec)
  Aux angular momentum 4               ... done (    0.001 sec)
Closing buffer VIA ( 0.00 GB; CompressionRatio= 1.00)
  Phase 1 completed in     0.093 sec
Second Phase: sorting and transformation of aux index

IA-Transformation
Memory available                       ... 5000 MB 
Max. # MO pairs treated in a batch     ... 1    
# of internal orbitals                 ... 7
# batches for internal orbitals        ... 1
Closing buffer IAV ( 0.00 GB; CompressionRatio= 1.00)
(ia|v) transformation done in     0.001 sec

  Phase 2 completed in     0.004 sec
RI-Integral transformation completed in     0.098 sec

-----------------
RI-TRANSFORMATION (AUX index driven)
-----------------

Dimension of the orbital-basis         ... 80
Dimension of the aux-basis             ... 184
Transformation of internal/external MOs...    2-   6 to    7-  79
Number Format for Storage              ... Double (8 Byte)
Integral mode                          ... Direct

First Phase: integral generation and transformation of MO indices
  Aux angular momentum 0               ... done (    0.000 sec)
  Aux angular momentum 1               ... done (    0.000 sec)
  Aux angular momentum 2               ... done (    0.000 sec)
  Aux angular momentum 3               ... done (    0.001 sec)
  Aux angular momentum 4               ... done (    0.001 sec)
Closing buffer VIA ( 0.00 GB; CompressionRatio= 1.00)
  Phase 1 completed in     0.071 sec
Second Phase: sorting and transformation of aux index

IA-Transformation
Memory available                       ... 5000 MB 
Max. # MO pairs treated in a batch     ... 1    
# of internal orbitals                 ... 5
# batches for internal orbitals        ... 1
Closing buffer IAV ( 0.00 GB; CompressionRatio= 1.00)
(ia|v) transformation done in     0.002 sec

  Phase 2 completed in     0.004 sec
RI-Integral transformation completed in     0.076 sec
Opening buffers                              ... done

Starting loop over batches of integrals:

Operator 0  - window                       ... (  2-  8)x(  9- 79)
Operator 0  - Memory available             ...  5000 MB
Operator 0  - Memory needed per MO         ...   0.1 MB
Operator 0  - Number of orbitals per batch ... 1
Operator 0  - Number of batches            ... 1

OPERATOR  0   PASS   0:  MOs     2 ...    2 +    3 ...    3 +    4 ...    4 +    5 ...    5
                            +    6 ...    6 +    7 ...    7 +    8 ...    8
  Reading integrals       ... ok

Operator 1  - window                       ... (  2-  6)x(  7- 79)
Operator 1  - Memory available             ...  5000 MB
Operator 1  - Memory needed per MO         ...   0.1 MB
Operator 1  - Number of orbitals per batch ... 1
Operator 1  - Number of batches            ... 1

OPERATOR  1   PASS   0:  MOs     2 ...    2 +    3 ...    3 +    4 ...    4 +    5 ...    5
                            +    6 ...    6
  Reading integrals       ... ok
Time spent in pair loops =     0.003 sec
Deleting buffer (Ka|jb)[aa] ...done
Deleting buffer (Ka|jb)[ab] ...done
Deleting buffer (Ka|jb)[ba] ...done
Deleting buffer (Ka|jb)[bb] ...done

Spin-scaled correlation energy components}
 E2 and T2 for alpha/alpha pairs :     -0.026039113 Eh      0.000000000
 E2 and T2 for beta/beta   pairs :     -0.032624489 Eh      0.000000000
 E2 and T2 for alpha/beta  pairs :     -0.164206237 Eh      0.000000000


-----------------------------------------------
 RI-MP2 CORRELATION ENERGY:     -0.222869839 Eh
-----------------------------------------------


-------
TIMINGS
-------

Total time                :    0.211 sec
Integral trafo            :    0.202 sec ( 95.4%)
I/O of integrals          :    0.000 sec (  0.1%)
K(i,j) Operators          :    0.000 sec (  0.2%)
T(i,j) pair energies      :    0.000 sec (  0.0%)
V-calculation             :    0.001 sec (  0.5%)
V**(-1/2)                 :    0.004 sec (  2.0%)
Gamma(ia|P)               :    0.000 sec (  0.0%)
Gamma-Trafo               :    0.000 sec (  0.0%)
D(virtual)                :    0.000 sec (  0.0%)
D(internal)               :    0.000 sec (  0.0%)
W(virtual)                :    0.000 sec (  0.0%)
W(internal)               :    0.000 sec (  0.0%)
L(virtual)                :    0.000 sec (  0.0%)
L(internal)               :    0.000 sec (  0.0%)
G(D)                      :    0.000 sec (  0.0%)
G(Z)                      :    0.000 sec (  0.0%)
Z-Vector Solution         :    0.000 sec (  0.0%)
Z-Vector Solution         :    0.000 sec (  0.0%)
3-Index Derivative 
+ Separable RIJ part      :    0.000 sec (  0.0%)
2-Index Derivative 
+ Separable RIJ part      :    0.000 sec (  0.0%)
Separable Gradient (X)    :    0.000 sec (  0.0%)


---------------------------------------
MP2 TOTAL ENERGY:     -150.245341046 Eh
---------------------------------------


-------------------------------------------------------------------------------
                          DFT DISPERSION CORRECTION                            
                                                                               
                              DFTD3 V3.1  Rev 1                                
                          USING Becke-Johnson damping                          
-------------------------------------------------------------------------------
The DSD-BLYP/2013 functional is recognized
Active option DFTDOPT                   ...         4   

molecular C6(AA) [au] = 51.246886 


            DFT-D V3
 parameters
 s6 scaling factor         :     0.5700 
 a1 scaling factor         :     0.0000 
 s8 scaling factor         :     0.0000 
 a2 scaling factor         :     5.4000 
 ad hoc parameters k1-k3   :    16.0000     1.3333    -4.0000 

 Edisp/kcal,au: -0.183690380115  -0.000292729223 
 E6   /kcal   :  -0.183690380 
 E8   /kcal   :  -0.000000000 
 % E8         :   0.000000000 

-------------------------   ----------------
Dispersion correction           -0.000292729
-------------------------   ----------------


-------------------------   --------------------
FINAL SINGLE POINT ENERGY      -150.245633775440
-------------------------   --------------------


                            ***************************************
                            *     ORCA property calculations      *
                            ***************************************


  WARNING: The energy has been calculated at the MP2 level but the densities
           used in the property calculations are still SCF densities
           MP2 response densities have not been calculated 
           use %mp2 Density relaxed end
           or  %mp2 Density unrelaxed end

                                    ---------------------
                                    Active property flags
                                    ---------------------
   (+) Dipole Moment


------------------------------------------------------------------------------
                       ORCA ELECTRIC PROPERTIES CALCULATION
------------------------------------------------------------------------------

Dipole Moment Calculation                       ... on
Quadrupole Moment Calculation                   ... off
Polarizability Calculation                      ... off
GBWName                                         ... 172_o.gbw
Electron density file                           ... 172_o.scfp
The origin for moment calculation is the CENTER OF MASS  = ( 0.000000,  0.000000  0.000000)

-------------
DIPOLE MOMENT
-------------
                                X             Y             Z
Electronic contribution:      0.00000       0.00000       0.00000
Nuclear contribution   :      0.00000       0.00000       0.00000
                        -----------------------------------------
Total Dipole Moment    :      0.00000       0.00000       0.00000
                        -----------------------------------------
Magnitude (a.u.)       :      0.00000
Magnitude (Debye)      :      0.00000



--------------------
Rotational spectrum 
--------------------
 
Rotational constants in cm-1:     0.000000     1.410194     1.410194 
Rotational constants in MHz :     0.000000 42276.561443 42276.561443 

 Dipole components along the rotational axes: 
x,y,z [a.u.] :     0.000000     0.000000     0.000000 
x,y,z [Debye]:     0.000000     0.000000     0.000000 

 

Timings for individual modules:

Sum of individual times         ...        2.734 sec (=   0.046 min)
GTO integral calculation        ...        0.543 sec (=   0.009 min)  19.9 %
SCF iterations                  ...        1.517 sec (=   0.025 min)  55.5 %
MP2 module                      ...        0.674 sec (=   0.011 min)  24.6 %
                             ****ORCA TERMINATED NORMALLY****
TOTAL RUN TIME: 0 days 0 hours 0 minutes 3 seconds 228 msec
