
                                 *****************
                                 * O   R   C   A *
                                 *****************

           --- An Ab Initio, DFT and Semiempirical electronic structure package ---

                  #######################################################
                  #                        -***-                        #
                  #          Department of theory and spectroscopy      #
                  #               Directorship: Frank Neese             #
                  #        Max Planck Institute fuer Kohlenforschung    #
                  #                Kaiser Wilhelm Platz 1               #
                  #                 D-45470 Muelheim/Ruhr               #
                  #                      Germany                        #
                  #                                                     #
                  #                  All rights reserved                #
                  #                        -***-                        #
                  #######################################################


                         Program Version 4.2.0 -  RELEASE  -


 With contributions from (in alphabetic order):
   Daniel Aravena         : Magnetic Suceptibility
   Michael Atanasov       : Ab Initio Ligand Field Theory (pilot matlab implementation)
   Alexander A. Auer      : GIAO ZORA, VPT2
   Ute Becker             : Parallelization
   Giovanni Bistoni       : ED, misc. LED, open-shell LED, HFLED
   Martin Brehm           : Molecular dynamics
   Dmytro Bykov           : SCF Hessian
   Vijay G. Chilkuri      : MRCI spin determinant printing, contributions to CSF-ICE
   Dipayan Datta          : RHF DLPNO-CCSD density
   Achintya Kumar Dutta   : EOM-CC, STEOM-CC
   Dmitry Ganyushin       : Spin-Orbit,Spin-Spin,Magnetic field MRCI
   Miquel Garcia          : C-PCM Hessian, Gaussian charge scheme
   Yang Guo               : DLPNO-NEVPT2, CIM, IAO-localization
   Andreas Hansen         : Spin unrestricted coupled pair/coupled cluster methods
   Benjamin Helmich-Paris : CASSCF linear response (MC-RPA)
   Lee Huntington         : MR-EOM, pCC
   Robert Izsak           : Overlap fitted RIJCOSX, COSX-SCS-MP3, EOM
   Christian Kollmar      : KDIIS, OOCD, Brueckner-CCSD(T), CCSD density
   Simone Kossmann        : Meta GGA functionals, TD-DFT gradient, OOMP2, MP2 Hessian
   Martin Krupicka        : AUTO-CI
   Lucas Lang             : DCDCAS
   Dagmar Lenk            : GEPOL surface, SMD
   Dimitrios Liakos       : Extrapolation schemes; Compound Job, initial MDCI parallelization
   Dimitrios Manganas     : Further ROCIS development; embedding schemes
   Dimitrios Pantazis     : SARC Basis sets
   Taras Petrenko         : DFT Hessian,TD-DFT gradient, ASA, ECA, R-Raman, ABS, FL, XAS/XES, NRVS
   Peter Pinski           : DLPNO-MP2, DLPNO-MP2 Gradient
   Christoph Reimann      : Effective Core Potentials
   Marius Retegan         : Local ZFS, SOC
   Christoph Riplinger    : Optimizer, TS searches, QM/MM, DLPNO-CCSD(T), (RO)-DLPNO pert. Triples
   Tobias Risthaus        : Range-separated hybrids, TD-DFT gradient, RPA, STAB
   Michael Roemelt        : Original ROCIS implementation
   Masaaki Saitow         : Open-shell DLPNO-CCSD energy and density
   Barbara Sandhoefer     : DKH picture change effects
   Avijit Sen             : IP-ROCIS
   Kantharuban Sivalingam : CASSCF convergence, NEVPT2, FIC-MRCI
   Bernardo de Souza      : ESD, SOC TD-DFT
   Georgi Stoychev        : AutoAux, RI-MP2 NMR
   Willem Van den Heuvel  : Paramagnetic NMR
   Boris Wezisla          : Elementary symmetry handling
   Frank Wennmohs         : Technical directorship


 We gratefully acknowledge several colleagues who have allowed us to
 interface, adapt or use parts of their codes:
   Stefan Grimme, W. Hujo, H. Kruse,             : VdW corrections, initial TS optimization,
                  C. Bannwarth                     DFT functionals, gCP, sTDA/sTD-DF
   Ed Valeev, F. Pavosevic, A. Kumar             : LibInt (2-el integral package), F12 methods
   Garnet Chan, S. Sharma, J. Yang, R. Olivares  : DMRG
   Ulf Ekstrom                                   : XCFun DFT Library
   Mihaly Kallay                                 : mrcc  (arbitrary order and MRCC methods)
   Andreas Klamt, Michael Diedenhofen            : otool_cosmo (COSMO solvation model)
   Jiri Pittner, Ondrej Demel                    : Mk-CCSD
   Frank Weinhold                                : gennbo (NPA and NBO analysis)
   Christopher J. Cramer and Donald G. Truhlar   : smd solvation model
   Lars Goerigk                                  : TD-DFT with DH, B97 family of functionals
   V. Asgeirsson, H. Jonsson                     : NEB implementation
   FAccTs GmbH                                   : IRC, NEB, NEB-TS, Multilevel, MM, QM/MM, CI optimization
   S Lehtola, MJT Oliveira, MAL Marques          : LibXC Library


 Your calculation uses the libint2 library for the computation of 2-el integrals
 For citations please refer to: http://libint.valeyev.net

 Your ORCA version has been built with support for libXC version: 4.2.3
 For citations please refer to: https://tddft.org/programs/libxc/

 This ORCA versions uses:
   CBLAS   interface :  Fast vector & matrix operations
   LAPACKE interface :  Fast linear algebra routines
   SCALAPACK package :  Parallel linear algebra routines


Your calculation utilizes the atom-pairwise dispersion correction
with the Becke-Johnson damping scheme (D3BJ)
Cite in your paper:
S.Grimme, S.Ehrlich, L.Goerigk, J Comput Chem, (2011), 32, 1456–1465 
S.Grimme, J.Antony, S.Ehrlich and H.Krieg, J.Chem.Phys., 132, (2010), 154104 
   

----- Orbital basis set information -----
Your calculation utilizes the basis: def2-TZVPPD
   F. Weigend and R. Ahlrichs, Phys. Chem. Chem. Phys. 7, 3297 (2005).
   D. Rappoport and F. Furche, J. Chem. Phys. 133 134105 (2010).

----- AuxC basis set information -----
Your calculation utilizes the auxiliary basis: def2-TZVPPD/C
   A. Hellweg, C. Hattig, S. Hofener and W. Klopper, Theor. Chem. Acc. 117, 587 (2007).

----- AuxJK basis set information -----
Your calculation utilizes the auxiliary basis: def2/JK
   H-Ba, Hf-Rn: F. Weigend, J. Comput. Chem. 29, 167 (2008).

================================================================================
                                        WARNINGS
                       Please study these warnings very carefully!
================================================================================


WARNING: No MP2 level density has been requested!
         To caclulate MP2 level properties use
         %mp2 Density relaxed end
         or
         %mp2 Density unrelaxed end
         Otherwise for double-hybrid DFT only the energy is correct!

WARNING: There are different parametrizations of Gershom Martin's DSD-DFs
         for use with and without D3(BJ)!
         You are using the D3(BJ) parametrized version,
         consistent with the 2013 article (S. Kozuch and J. M. L. Martin, JCC 2013, 34, 2327)

WARNING: The frozen-core approximation is turned on by default for 
         the MP2 part of double-hybrid DFT.

INFO   : the flag for use of LIBINT has been found!

================================================================================
                                       INPUT FILE
================================================================================
NAME = 173_f.in
|  1> #
|  2> # 173_f ri-DSD-BLYP/2013-D3BJ/Def2-TZVPPD
|  3> #
|  4> ! rijk ri-dsd-blyp/2013 d3bj def2-tzvppd def2/jk def2-tzvppd/c grid4 nofinalgrid
|  5> 
|  6> *xyz 0 1
|  7> F          0.00000        0.00000        0.71109
|  8> F          0.00000        0.00000       -0.71109
|  9> *
| 10> 
| 11> %maxcore 5000
| 12> 
| 13> %pal
| 14> nprocs = 24
| 15> end
| 16> 
| 17> 
| 18>                          ****END OF INPUT****
================================================================================

                       ****************************
                       * Single Point Calculation *
                       ****************************

---------------------------------
CARTESIAN COORDINATES (ANGSTROEM)
---------------------------------
  F      0.000000    0.000000    0.711090
  F      0.000000    0.000000   -0.711090

----------------------------
CARTESIAN COORDINATES (A.U.)
----------------------------
  NO LB      ZA    FRAG     MASS         X           Y           Z
   0 F     9.0000    0    18.998    0.000000    0.000000    1.343765
   1 F     9.0000    0    18.998    0.000000    0.000000   -1.343765

--------------------------------
INTERNAL COORDINATES (ANGSTROEM)
--------------------------------
 F      0   0   0     0.000000000000     0.00000000     0.00000000
 F      1   0   0     1.422180000000     0.00000000     0.00000000

---------------------------
INTERNAL COORDINATES (A.U.)
---------------------------
 F      0   0   0     0.000000000000     0.00000000     0.00000000
 F      1   0   0     2.687530713140     0.00000000     0.00000000

---------------------
BASIS SET INFORMATION
---------------------
There are 1 groups of distinct atoms

 Group   1 Type F   : 12s7p3d1f contracted to 6s4p3d1f pattern {621111/4111/111/1}

Atom   0F    basis set group =>   1
Atom   1F    basis set group =>   1
---------------------------------
AUXILIARY/C BASIS SET INFORMATION
---------------------------------
There are 1 groups of distinct atoms

 Group   1 Type F   : 9s7p6d4f1g contracted to 9s7p5d4f1g pattern {111111111/1111111/21111/1111/1}

Atom   0F    basis set group =>   1
Atom   1F    basis set group =>   1
----------------------------------
AUXILIARY/JK BASIS SET INFORMATION
----------------------------------
There are 1 groups of distinct atoms

 Group   1 Type F   : 14s10p6d2f1g contracted to 10s8p4d2f1g pattern {5111111111/31111111/3111/11/1}

Atom   0F    basis set group =>   1
Atom   1F    basis set group =>   1


           ************************************************************
           *        Program running with 24 parallel MPI-processes    *
           *              working on a common directory               *
           ************************************************************
------------------------------------------------------------------------------
                           ORCA GTO INTEGRAL CALCULATION
                           -- RI-GTO INTEGRALS CHOSEN --
------------------------------------------------------------------------------

                         BASIS SET STATISTICS AND STARTUP INFO

Gaussian basis set:
 # of primitive gaussian shells          ...   46
 # of primitive gaussian functions       ...  110
 # of contracted shells                  ...   28
 # of contracted basis functions         ...   80
 Highest angular momentum                ...    3
 Maximum contraction depth               ...    6
Auxiliary gaussian basis set:
 # of primitive gaussian shells          ...   66
 # of primitive gaussian functions       ...  194
 # of contracted shells                  ...   50
 # of contracted aux-basis functions     ...  154
 Highest angular momentum                ...    4
 Maximum contraction depth               ...    5
Ratio of auxiliary to basis functions    ...  1.93
Integral package used                  ... LIBINT
 One Electron integrals                  ... done
 Ordering auxiliary basis shells         ... done
 Integral threshhold             Thresh  ...  1.000e-10
 Primitive cut-off               TCut    ...  1.000e-11
 Pre-screening matrix                    ... done
 Shell pair data                         ... 
 Ordering of the shell pairs             ... done (   0.000 sec) 403 of 406 pairs
 Determination of significant pairs      ... done (   0.000 sec)
 Creation of shell pair data             ... done (   0.000 sec)
 Storage of shell pair data              ... done (   0.018 sec)
 Shell pair data done in (   0.018 sec)
 Computing two index integrals           ... done
 Cholesky decomposition of the V-matrix  ... done


Timings:
 Total evaluation time                   ...   0.208 sec (  0.003 min)
 One electron matrix time                ...   0.021 sec (  0.000 min) = 10.3%
 Schwartz matrix evaluation time         ...   0.133 sec (  0.002 min) = 64.0%
 Two index repulsion integral time       ...   0.001 sec (  0.000 min) =  0.4%
 Cholesky decomposition of V             ...   0.001 sec (  0.000 min) =  0.5%
 Three index repulsion integral time     ...   0.000 sec (  0.000 min) =  0.0%



           ************************************************************
           *        Program running with 24 parallel MPI-processes    *
           *              working on a common directory               *
           ************************************************************
-------------------------------------------------------------------------------
                                 ORCA SCF
-------------------------------------------------------------------------------

------------
SCF SETTINGS
------------
Hamiltonian:
 Density Functional     Method          .... DFT(GTOs)
 Exchange Functional    Exchange        .... B88
   X-Alpha parameter    XAlpha          ....  0.666667
   Becke's b parameter  XBeta           ....  0.004200
 Correlation Functional Correlation     .... LYP
 LDA part of GGA corr.  LDAOpt          .... VWN-5
 Gradients option       PostSCFGGA      .... off
 Hybrid DFT is turned on
   Fraction HF Exchange ScalHFX         ....  0.710000
   Scaling of DF-GGA-X  ScalDFX         ....  0.290000
   Scaling of DF-GGA-C  ScalDFC         ....  0.540000
   Scaling of DF-LDA-C  ScalLDAC        ....  0.540000
   Perturbative correction              ....  1.000000
   Density functional embedding theory  .... OFF
 RI-approximation to the Coulomb term is turned on
   Number of auxiliary basis functions  .... 154
   RI-JK (J+K treated both via RI)      .... on


General Settings:
 Integral files         IntName         .... 173_f
 Hartree-Fock type      HFTyp           .... RHF
 Total Charge           Charge          ....    0
 Multiplicity           Mult            ....    1
 Number of Electrons    NEL             ....   18
 Basis Dimension        Dim             ....   80
 Nuclear Repulsion      ENuc            ....     30.1391904487 Eh

Convergence Acceleration:
 DIIS                   CNVDIIS         .... on
   Start iteration      DIISMaxIt       ....    12
   Startup error        DIISStart       ....  0.200000
   # of expansion vecs  DIISMaxEq       ....     5
   Bias factor          DIISBfac        ....   1.050
   Max. coefficient     DIISMaxC        ....  10.000
 Newton-Raphson         CNVNR           .... off
 SOSCF                  CNVSOSCF        .... on
   Start iteration      SOSCFMaxIt      ....   150
   Startup grad/error   SOSCFStart      ....  0.003300
 Level Shifting         CNVShift        .... on
   Level shift para.    LevelShift      ....    0.2500
   Turn off err/grad.   ShiftErr        ....    0.0010
 Zerner damping         CNVZerner       .... off
 Static damping         CNVDamp         .... on
   Fraction old density DampFac         ....    0.7000
   Max. Damping (<1)    DampMax         ....    0.9800
   Min. Damping (>=0)   DampMin         ....    0.0000
   Turn off err/grad.   DampErr         ....    0.1000
 Fernandez-Rico         CNVRico         .... off

SCF Procedure:
 Maximum # iterations   MaxIter         ....   125
 SCF integral mode      SCFMode         .... Direct
   Integral package                     .... LIBINT
 Reset frequency        DirectResetFreq ....    20
 Integral Threshold     Thresh          ....  1.000e-10 Eh
 Primitive CutOff       TCut            ....  1.000e-11 Eh

Convergence Tolerance:
 Convergence Check Mode ConvCheckMode   .... Total+1el-Energy
 Convergence forced     ConvForced      .... 0
 Energy Change          TolE            ....  1.000e-06 Eh
 1-El. energy change                    ....  1.000e-03 Eh
 Orbital Gradient       TolG            ....  5.000e-05
 Orbital Rotation angle TolX            ....  5.000e-05
 DIIS Error             TolErr          ....  1.000e-06


Diagonalization of the overlap matrix:
Smallest eigenvalue                        ... 1.094e-03
Time for diagonalization                   ...    0.002 sec
Threshold for overlap eigenvalues          ... 1.000e-08
Number of eigenvalues below threshold      ... 0
Time for construction of square roots      ...    0.001 sec
Total time needed                          ...    0.003 sec

-------------------
DFT GRID GENERATION
-------------------

General Integration Accuracy     IntAcc      ...  4.670
Radial Grid Type                 RadialGrid  ... Gauss-Chebyshev
Angular Grid (max. acc.)         AngularGrid ... Lebedev-302
Angular grid pruning method      GridPruning ... 3 (G Style)
Weight generation scheme         WeightScheme... Becke
Basis function cutoff            BFCut       ...    1.0000e-10
Integration weight cutoff        WCut        ...    1.0000e-14
Grids for H and He will be reduced by one unit

# of grid points (after initial pruning)     ...  12544 (   0.0 sec)
# of grid points (after weights+screening)   ...  12518 (   0.0 sec)
nearest neighbour list constructed           ...    0.0 sec
Grid point re-assignment to atoms done       ...    0.0 sec
Grid point division into batches done        ...    0.1 sec
Reduced shell lists constructed in    0.1 sec

Total number of grid points                  ...    12518
Total number of batches                      ...      196
Average number of points per batch           ...       63
Average number of grid points per atom       ...     6259
Average number of shells per batch           ...     6.50 (23.21%)
Average number of basis functions per batch  ...    18.50 (23.12%)
Average number of large shells per batch     ...     4.10 (63.08%)
Average number of large basis fcns per batch ...    10.90 (58.92%)
Average number of aux-shells per batch       ...     6.50 (13.00%)
Average number of aux functions per batch    ...    18.50 (12.01%)
Maximum spatial batch extension              ...  19.94, 19.94, 11.46 au
Average spatial batch extension              ...   0.67,  0.67,  0.45 au

Time for grid setup =    0.130 sec

------------------------------
INITIAL GUESS: MODEL POTENTIAL
------------------------------
Loading Hartree-Fock densities                     ... done
Calculating cut-offs                               ... done
Setting up the integral package                    ... done
Initializing the effective Hamiltonian             ... done
Starting the Coulomb interaction                   ... done (   0.0 sec)
Reading the grid                                   ... done
Mapping shells                                     ... done
Starting the XC term evaluation                    ... done (   0.0 sec)
  promolecular density results
     # of electrons  =     17.999997366
     EX              =    -20.020322886
     EC              =     -0.078997098
     EX+EC           =    -20.099319984
Transforming the Hamiltonian                       ... done (   0.0 sec)
Diagonalizing the Hamiltonian                      ... done (   0.0 sec)
Back transforming the eigenvectors                 ... done (   0.0 sec)
Now organizing SCF variables                       ... done
                      ------------------
                      INITIAL GUESS DONE (   0.3 sec)
                      ------------------
--------------
SCF ITERATIONS
--------------
ITER       Energy         Delta-E        Max-DP      RMS-DP      [F,P]     Damp
  0   -199.1433090040   0.000000000000 0.01409056  0.00065925  0.0931517 0.7000
  1   -199.1786008599  -0.035291855915 0.01345892  0.00061674  0.0767913 0.7000
                               ***Turning on DIIS***
  2   -199.1852992456  -0.006698385694 0.03163134  0.00148768  0.0549135 0.0000
  3   -199.1680602022   0.017239043389 0.00598243  0.00035299  0.0211916 0.0000
                      *** Initiating the SOSCF procedure ***
                           *** Shutting down DIIS ***
                      *** Re-Reading the Fockian *** 
                      *** Removing any level shift *** 
ITER      Energy       Delta-E        Grad      Rot      Max-DP    RMS-DP
  4   -199.16927555  -0.0012153509  0.002934  0.002934  0.003445  0.000106
  5   -199.16931497  -0.0000394178  0.000990  0.000737  0.000382  0.000027
  6   -199.16931803  -0.0000030568  0.000287  0.000120  0.000178  0.000009
                 **** Energy Check signals convergence ****
              ***Rediagonalizing the Fockian in SOSCF/NRSCF***

               *****************************************************
               *                     SUCCESS                       *
               *           SCF CONVERGED AFTER   7 CYCLES          *
               *****************************************************


----------------
TOTAL SCF ENERGY
----------------

Total Energy       :         -199.16931856 Eh           -5419.67269 eV

Components:
Nuclear Repulsion  :           30.13919045 Eh             820.12907 eV
Electronic Energy  :         -229.30850901 Eh           -6239.80176 eV
One Electron Energy:         -338.18327713 Eh           -9202.43481 eV
Two Electron Energy:          108.87476812 Eh            2962.63306 eV

Virial components:
Potential Energy   :         -397.86900270 Eh          -10826.56598 eV
Kinetic Energy     :          198.69968414 Eh            5406.89329 eV
Virial Ratio       :            2.00236354


DFT components:
N(Alpha)           :        8.999996530325 electrons
N(Beta)            :        8.999996530325 electrons
N(Total)           :       17.999993060650 electrons
E(X)               :       -5.824926075745 Eh       
E(C)               :       -0.364424426186 Eh       
E(XC)              :       -6.189350501931 Eh       
DFET-embed. en.    :        0.000000000000 Eh       

---------------
SCF CONVERGENCE
---------------

  Last Energy change         ...   -5.3021e-07  Tolerance :   1.0000e-06
  Last MAX-Density change    ...    4.3387e-05  Tolerance :   1.0000e-05
  Last RMS-Density change    ...    1.5587e-06  Tolerance :   1.0000e-06
  Last Orbital Gradient      ...    4.0158e-05  Tolerance :   5.0000e-05
  Last Orbital Rotation      ...    1.5160e-05  Tolerance :   5.0000e-05

             **** THE GBW FILE WAS UPDATED (173_f.gbw) ****
             **** DENSITY FILE WAS UPDATED (173_f.scfp) ****
             **** ENERGY FILE WAS UPDATED (173_f.en.tmp) ****
             **** THE GBW FILE WAS UPDATED (173_f.gbw) ****
             **** DENSITY FILE WAS UPDATED (173_f.scfp) ****
----------------
ORBITAL ENERGIES
----------------

  NO   OCC          E(Eh)            E(eV) 
   0   2.0000     -25.849792      -703.4086 
   1   2.0000     -25.849633      -703.4043 
   2   2.0000      -1.616311       -43.9821 
   3   2.0000      -1.366629       -37.1879 
   4   2.0000      -0.718681       -19.5563 
   5   2.0000      -0.718681       -19.5563 
   6   2.0000      -0.702735       -19.1224 
   7   2.0000      -0.584157       -15.8957 
   8   2.0000      -0.584157       -15.8957 
   9   0.0000      -0.023254        -0.6328 
  10   0.0000       0.102961         2.8017 
  11   0.0000       0.120710         3.2847 
  12   0.0000       0.128398         3.4939 
  13   0.0000       0.128398         3.4939 
  14   0.0000       0.175381         4.7724 
  15   0.0000       0.175381         4.7724 
  16   0.0000       0.186017         5.0618 
  17   0.0000       0.360405         9.8071 
  18   0.0000       0.488618        13.2960 
  19   0.0000       0.488620        13.2960 
  20   0.0000       0.602574        16.3969 
  21   0.0000       0.627468        17.0743 
  22   0.0000       0.636953        17.3324 
  23   0.0000       0.636953        17.3324 
  24   0.0000       0.673715        18.3327 
  25   0.0000       0.673715        18.3327 
  26   0.0000       0.674352        18.3500 
  27   0.0000       0.674353        18.3501 
  28   0.0000       0.760421        20.6921 
  29   0.0000       0.760421        20.6921 
  30   0.0000       0.935160        25.4470 
  31   0.0000       1.083155        29.4742 
  32   0.0000       1.111560        30.2471 
  33   0.0000       1.111560        30.2471 
  34   0.0000       1.197921        32.5971 
  35   0.0000       1.595260        43.4092 
  36   0.0000       2.063421        56.1485 
  37   0.0000       2.063421        56.1485 
  38   0.0000       2.281818        62.0914 
  39   0.0000       2.296432        62.4891 
  40   0.0000       2.296437        62.4892 
  41   0.0000       2.445963        66.5580 
  42   0.0000       2.445968        66.5582 
  43   0.0000       2.718948        73.9863 
  44   0.0000       2.718948        73.9863 
  45   0.0000       3.168004        86.2058 
  46   0.0000       3.421768        93.1110 
  47   0.0000       3.421768        93.1110 
  48   0.0000       3.471320        94.4594 
  49   0.0000       3.743010       101.8525 
  50   0.0000       3.743010       101.8525 
  51   0.0000       3.993656       108.6729 
  52   0.0000       4.232037       115.1596 
  53   0.0000       5.102767       138.8534 
  54   0.0000       6.732195       183.1923 
  55   0.0000       6.732195       183.1923 
  56   0.0000       6.885392       187.3611 
  57   0.0000       6.971943       189.7162 
  58   0.0000       6.971948       189.7163 
  59   0.0000       7.127986       193.9623 
  60   0.0000       7.127986       193.9623 
  61   0.0000       7.152916       194.6407 
  62   0.0000       7.152916       194.6407 
  63   0.0000       7.241695       197.0565 
  64   0.0000       7.241699       197.0566 
  65   0.0000       7.604928       206.9406 
  66   0.0000       7.604928       206.9406 
  67   0.0000       8.090329       220.1490 
  68   0.0000       8.660556       235.6657 
  69   0.0000       8.660556       235.6657 
  70   0.0000       8.684475       236.3166 
  71   0.0000       8.684476       236.3166 
  72   0.0000       8.800739       239.4803 
  73   0.0000       8.800743       239.4804 
  74   0.0000       9.082038       247.1348 
  75   0.0000       9.171730       249.5755 
  76   0.0000       9.171730       249.5755 
  77   0.0000      10.285016       279.8695 
  78   0.0000      57.648649      1568.6995 
  79   0.0000      58.606102      1594.7531 

                    ********************************
                    * MULLIKEN POPULATION ANALYSIS *
                    ********************************

-----------------------
MULLIKEN ATOMIC CHARGES
-----------------------
   0 F :   -0.000000
   1 F :    0.000000
Sum of atomic charges:   -0.0000000

--------------------------------
MULLIKEN REDUCED ORBITAL CHARGES
--------------------------------
  0 F s       :     3.987040  s :     3.987040
      pz      :     1.006086  p :     4.999411
      px      :     1.996662
      py      :     1.996662
      dz2     :     0.006308  d :     0.012633
      dxz     :     0.003163
      dyz     :     0.003163
      dx2y2   :     0.000000
      dxy     :     0.000000
      f0      :     0.000566  f :     0.000916
      f+1     :     0.000175
      f-1     :     0.000175
      f+2     :     0.000000
      f-2     :     0.000000
      f+3     :     0.000000
      f-3     :     0.000000
  1 F s       :     3.987040  s :     3.987040
      pz      :     1.006086  p :     4.999411
      px      :     1.996662
      py      :     1.996662
      dz2     :     0.006308  d :     0.012633
      dxz     :     0.003163
      dyz     :     0.003163
      dx2y2   :     0.000000
      dxy     :     0.000000
      f0      :     0.000566  f :     0.000916
      f+1     :     0.000175
      f-1     :     0.000175
      f+2     :     0.000000
      f-2     :     0.000000
      f+3     :     0.000000
      f-3     :     0.000000


                     *******************************
                     * LOEWDIN POPULATION ANALYSIS *
                     *******************************

----------------------
LOEWDIN ATOMIC CHARGES
----------------------
   0 F :   -0.000000
   1 F :    0.000000

-------------------------------
LOEWDIN REDUCED ORBITAL CHARGES
-------------------------------
  0 F s       :     3.765845  s :     3.765845
      pz      :     1.118011  p :     4.984483
      px      :     1.933236
      py      :     1.933236
      dz2     :     0.114734  d :     0.247239
      dxz     :     0.066252
      dyz     :     0.066252
      dx2y2   :     0.000000
      dxy     :     0.000000
      f0      :     0.001409  f :     0.002433
      f+1     :     0.000512
      f-1     :     0.000512
      f+2     :     0.000000
      f-2     :     0.000000
      f+3     :     0.000000
      f-3     :     0.000000
  1 F s       :     3.765845  s :     3.765845
      pz      :     1.118011  p :     4.984483
      px      :     1.933236
      py      :     1.933236
      dz2     :     0.114734  d :     0.247239
      dxz     :     0.066252
      dyz     :     0.066252
      dx2y2   :     0.000000
      dxy     :     0.000000
      f0      :     0.001409  f :     0.002433
      f+1     :     0.000512
      f-1     :     0.000512
      f+2     :     0.000000
      f-2     :     0.000000
      f+3     :     0.000000
      f-3     :     0.000000


                      *****************************
                      * MAYER POPULATION ANALYSIS *
                      *****************************

  NA   - Mulliken gross atomic population
  ZA   - Total nuclear charge
  QA   - Mulliken gross atomic charge
  VA   - Mayer's total valence
  BVA  - Mayer's bonded valence
  FA   - Mayer's free valence

  ATOM       NA         ZA         QA         VA         BVA        FA
  0 F      9.0000     9.0000    -0.0000     0.8589     0.8589    -0.0000
  1 F      9.0000     9.0000     0.0000     0.8589     0.8589    -0.0000

  Mayer bond orders larger than 0.100000
B(  0-F ,  1-F ) :   0.8589 

-------
TIMINGS
-------

Total SCF time: 0 days 0 hours 0 min 1 sec 

Total time                  ....       1.142 sec
Sum of individual times     ....       1.049 sec  ( 91.9%)

Fock matrix formation       ....       0.774 sec  ( 67.8%)
  XC integration            ....       0.064 sec  (  8.3% of F)
    Basis function eval.    ....       0.008 sec  ( 13.2% of XC)
    Density eval.           ....       0.005 sec  (  7.0% of XC)
    XC-Functional eval.     ....       0.004 sec  (  5.6% of XC)
    XC-Potential eval.      ....       0.007 sec  ( 11.2% of XC)
Diagonalization             ....       0.005 sec  (  0.4%)
Density matrix formation    ....       0.002 sec  (  0.2%)
Population analysis         ....       0.002 sec  (  0.2%)
Initial guess               ....       0.133 sec  ( 11.6%)
Orbital Transformation      ....       0.000 sec  (  0.0%)
Orbital Orthonormalization  ....       0.000 sec  (  0.0%)
DIIS solution               ....       0.002 sec  (  0.1%)
SOSCF solution              ....       0.002 sec  (  0.1%)
Grid generation             ....       0.130 sec  ( 11.4%)


           ************************************************************
           *        Program running with 24 parallel MPI-processes    *
           *              working on a common directory               *
           ************************************************************

------------------------------------------------------------------------------
                                ORCA  MP2 
------------------------------------------------------------------------------

Freezing NCore=4 chemical core electrons

-------------
RI-MP2 ENERGY
-------------
Dimension of the basis                    ...   80
Memory devoted to MP2                     ... 5000 MB   
Data format for buffers                   ... DOUBLE
Compression type for matrix containers    ... UNCOMPRESSED
Scaling for aa/bb pairs                   ...   4.000e-01
Scaling for ab pairs                      ...   4.700e-01
Overall scaling of the MP2 energy         ...   1.000e+00
Calculating two index integrals           ... done (    0.001 sec)
Cholesky decomposition of V**-1           ... done (    0.004 sec)

-----------------
RI-TRANSFORMATION (AUX index driven)
-----------------

Dimension of the orbital-basis         ... 80
Dimension of the aux-basis             ... 184
Transformation of internal/external MOs...    2-   8 to    9-  79
Number Format for Storage              ... Double (8 Byte)
Integral mode                          ... Direct

First Phase: integral generation and transformation of MO indices
  Aux angular momentum 0               ... done (    0.000 sec)
  Aux angular momentum 1               ... done (    0.000 sec)
  Aux angular momentum 2               ... done (    0.000 sec)
  Aux angular momentum 3               ... done (    0.001 sec)
  Aux angular momentum 4               ... done (    0.001 sec)
Closing buffer VIA ( 0.00 GB; CompressionRatio= 1.00)
  Phase 1 completed in     0.113 sec
Second Phase: sorting and transformation of aux index

IA-Transformation
Memory available                       ... 5000 MB 
Max. # MO pairs treated in a batch     ... 1    
# of internal orbitals                 ... 7
# batches for internal orbitals        ... 1
Closing buffer IAV ( 0.00 GB; CompressionRatio= 1.00)
(ia|v) transformation done in     0.001 sec

  Phase 2 completed in     0.004 sec
RI-Integral transformation completed in     0.118 sec
Opening buffers                              ... done

Starting loop over batches of integrals:

Operator 0  - window                       ... (  2-  8)x(  9- 79)
Operator 0  - Memory available             ...  5000 MB
Operator 0  - Memory needed per MO         ...   0.1 MB
Operator 0  - Number of orbitals per batch ... 1
Operator 0  - Number of batches            ... 1

OPERATOR  0   PASS   0:  MOs     2 ...    2 +    3 ...    3 +    4 ...    4 +    5 ...    5
                            +    6 ...    6 +    7 ...    7 +    8 ...    8
  Reading integrals       ... ok
Time spent in pair loops =     0.002 sec
Deleting buffer (Ka|jb)[aa] ...done

-----------------------------------------------
 RI-MP2 CORRELATION ENERGY:     -0.264050125 Eh
-----------------------------------------------


-------
TIMINGS
-------

Total time                :    0.138 sec
Integral trafo            :    0.130 sec ( 94.4%)
I/O of integrals          :    0.000 sec (  0.0%)
K(i,j) Operators          :    0.000 sec (  0.1%)
T(i,j) pair energies      :    0.000 sec (  0.0%)
V-calculation             :    0.001 sec (  0.9%)
V**(-1/2)                 :    0.004 sec (  2.6%)
Gamma(ia|P)               :    0.000 sec (  0.0%)
Gamma-Trafo               :    0.000 sec (  0.0%)
D(virtual)                :    0.000 sec (  0.0%)
D(internal)               :    0.000 sec (  0.0%)
W(virtual)                :    0.000 sec (  0.0%)
W(internal)               :    0.000 sec (  0.0%)
L(virtual)                :    0.000 sec (  0.0%)
L(internal)               :    0.000 sec (  0.0%)
G(D)                      :    0.000 sec (  0.0%)
G(Z)                      :    0.000 sec (  0.0%)
Z-Vector Solution         :    0.000 sec (  0.0%)
Z-Vector Solution         :    0.000 sec (  0.0%)
3-Index Derivative 
+ Separable RIJ part      :    0.000 sec (  0.0%)
2-Index Derivative 
+ Separable RIJ part      :    0.000 sec (  0.0%)
Separable Gradient (X)    :    0.000 sec (  0.0%)


---------------------------------------
MP2 TOTAL ENERGY:     -199.433368683 Eh
---------------------------------------


-------------------------------------------------------------------------------
                          DFT DISPERSION CORRECTION                            
                                                                               
                              DFTD3 V3.1  Rev 1                                
                          USING Becke-Johnson damping                          
-------------------------------------------------------------------------------
The DSD-BLYP/2013 functional is recognized
Active option DFTDOPT                   ...         4   

molecular C6(AA) [au] = 28.759785 


            DFT-D V3
 parameters
 s6 scaling factor         :     0.5700 
 a1 scaling factor         :     0.0000 
 s8 scaling factor         :     0.0000 
 a2 scaling factor         :     5.4000 
 ad hoc parameters k1-k3   :    16.0000     1.3333    -4.0000 

 Edisp/kcal,au: -0.102166366911  -0.000162812452 
 E6   /kcal   :  -0.102166367 
 E8   /kcal   :  -0.000000000 
 % E8         :   0.000000000 

-------------------------   ----------------
Dispersion correction           -0.000162812
-------------------------   ----------------


-------------------------   --------------------
FINAL SINGLE POINT ENERGY      -199.433531495061
-------------------------   --------------------


                            ***************************************
                            *     ORCA property calculations      *
                            ***************************************


  WARNING: The energy has been calculated at the MP2 level but the densities
           used in the property calculations are still SCF densities
           MP2 response densities have not been calculated 
           use %mp2 Density relaxed end
           or  %mp2 Density unrelaxed end

                                    ---------------------
                                    Active property flags
                                    ---------------------
   (+) Dipole Moment


------------------------------------------------------------------------------
                       ORCA ELECTRIC PROPERTIES CALCULATION
------------------------------------------------------------------------------

Dipole Moment Calculation                       ... on
Quadrupole Moment Calculation                   ... off
Polarizability Calculation                      ... off
GBWName                                         ... 173_f.gbw
Electron density file                           ... 173_f.scfp
The origin for moment calculation is the CENTER OF MASS  = ( 0.000000,  0.000000  0.000000)

-------------
DIPOLE MOMENT
-------------
                                X             Y             Z
Electronic contribution:     -0.00000      -0.00000      -0.00000
Nuclear contribution   :      0.00000       0.00000       0.00000
                        -----------------------------------------
Total Dipole Moment    :     -0.00000      -0.00000      -0.00000
                        -----------------------------------------
Magnitude (a.u.)       :      0.00000
Magnitude (Debye)      :      0.00000



--------------------
Rotational spectrum 
--------------------
 
Rotational constants in cm-1:     0.000000     0.877425     0.877425 
Rotational constants in MHz :     0.000000 26304.532186 26304.532186 

 Dipole components along the rotational axes: 
x,y,z [a.u.] :    -0.000000    -0.000000    -0.000000 
x,y,z [Debye]:    -0.000000    -0.000000    -0.000000 

 

Timings for individual modules:

Sum of individual times         ...        2.899 sec (=   0.048 min)
GTO integral calculation        ...        0.668 sec (=   0.011 min)  23.0 %
SCF iterations                  ...        1.562 sec (=   0.026 min)  53.9 %
MP2 module                      ...        0.669 sec (=   0.011 min)  23.1 %
                             ****ORCA TERMINATED NORMALLY****
TOTAL RUN TIME: 0 days 0 hours 0 minutes 3 seconds 516 msec
