
                                 *****************
                                 * O   R   C   A *
                                 *****************

           --- An Ab Initio, DFT and Semiempirical electronic structure package ---

                  #######################################################
                  #                        -***-                        #
                  #          Department of theory and spectroscopy      #
                  #               Directorship: Frank Neese             #
                  #        Max Planck Institute fuer Kohlenforschung    #
                  #                Kaiser Wilhelm Platz 1               #
                  #                 D-45470 Muelheim/Ruhr               #
                  #                      Germany                        #
                  #                                                     #
                  #                  All rights reserved                #
                  #                        -***-                        #
                  #######################################################


                         Program Version 4.2.0 -  RELEASE  -


 With contributions from (in alphabetic order):
   Daniel Aravena         : Magnetic Suceptibility
   Michael Atanasov       : Ab Initio Ligand Field Theory (pilot matlab implementation)
   Alexander A. Auer      : GIAO ZORA, VPT2
   Ute Becker             : Parallelization
   Giovanni Bistoni       : ED, misc. LED, open-shell LED, HFLED
   Martin Brehm           : Molecular dynamics
   Dmytro Bykov           : SCF Hessian
   Vijay G. Chilkuri      : MRCI spin determinant printing, contributions to CSF-ICE
   Dipayan Datta          : RHF DLPNO-CCSD density
   Achintya Kumar Dutta   : EOM-CC, STEOM-CC
   Dmitry Ganyushin       : Spin-Orbit,Spin-Spin,Magnetic field MRCI
   Miquel Garcia          : C-PCM Hessian, Gaussian charge scheme
   Yang Guo               : DLPNO-NEVPT2, CIM, IAO-localization
   Andreas Hansen         : Spin unrestricted coupled pair/coupled cluster methods
   Benjamin Helmich-Paris : CASSCF linear response (MC-RPA)
   Lee Huntington         : MR-EOM, pCC
   Robert Izsak           : Overlap fitted RIJCOSX, COSX-SCS-MP3, EOM
   Christian Kollmar      : KDIIS, OOCD, Brueckner-CCSD(T), CCSD density
   Simone Kossmann        : Meta GGA functionals, TD-DFT gradient, OOMP2, MP2 Hessian
   Martin Krupicka        : AUTO-CI
   Lucas Lang             : DCDCAS
   Dagmar Lenk            : GEPOL surface, SMD
   Dimitrios Liakos       : Extrapolation schemes; Compound Job, initial MDCI parallelization
   Dimitrios Manganas     : Further ROCIS development; embedding schemes
   Dimitrios Pantazis     : SARC Basis sets
   Taras Petrenko         : DFT Hessian,TD-DFT gradient, ASA, ECA, R-Raman, ABS, FL, XAS/XES, NRVS
   Peter Pinski           : DLPNO-MP2, DLPNO-MP2 Gradient
   Christoph Reimann      : Effective Core Potentials
   Marius Retegan         : Local ZFS, SOC
   Christoph Riplinger    : Optimizer, TS searches, QM/MM, DLPNO-CCSD(T), (RO)-DLPNO pert. Triples
   Tobias Risthaus        : Range-separated hybrids, TD-DFT gradient, RPA, STAB
   Michael Roemelt        : Original ROCIS implementation
   Masaaki Saitow         : Open-shell DLPNO-CCSD energy and density
   Barbara Sandhoefer     : DKH picture change effects
   Avijit Sen             : IP-ROCIS
   Kantharuban Sivalingam : CASSCF convergence, NEVPT2, FIC-MRCI
   Bernardo de Souza      : ESD, SOC TD-DFT
   Georgi Stoychev        : AutoAux, RI-MP2 NMR
   Willem Van den Heuvel  : Paramagnetic NMR
   Boris Wezisla          : Elementary symmetry handling
   Frank Wennmohs         : Technical directorship


 We gratefully acknowledge several colleagues who have allowed us to
 interface, adapt or use parts of their codes:
   Stefan Grimme, W. Hujo, H. Kruse,             : VdW corrections, initial TS optimization,
                  C. Bannwarth                     DFT functionals, gCP, sTDA/sTD-DF
   Ed Valeev, F. Pavosevic, A. Kumar             : LibInt (2-el integral package), F12 methods
   Garnet Chan, S. Sharma, J. Yang, R. Olivares  : DMRG
   Ulf Ekstrom                                   : XCFun DFT Library
   Mihaly Kallay                                 : mrcc  (arbitrary order and MRCC methods)
   Andreas Klamt, Michael Diedenhofen            : otool_cosmo (COSMO solvation model)
   Jiri Pittner, Ondrej Demel                    : Mk-CCSD
   Frank Weinhold                                : gennbo (NPA and NBO analysis)
   Christopher J. Cramer and Donald G. Truhlar   : smd solvation model
   Lars Goerigk                                  : TD-DFT with DH, B97 family of functionals
   V. Asgeirsson, H. Jonsson                     : NEB implementation
   FAccTs GmbH                                   : IRC, NEB, NEB-TS, Multilevel, MM, QM/MM, CI optimization
   S Lehtola, MJT Oliveira, MAL Marques          : LibXC Library


 Your calculation uses the libint2 library for the computation of 2-el integrals
 For citations please refer to: http://libint.valeyev.net

 Your ORCA version has been built with support for libXC version: 4.2.3
 For citations please refer to: https://tddft.org/programs/libxc/

 This ORCA versions uses:
   CBLAS   interface :  Fast vector & matrix operations
   LAPACKE interface :  Fast linear algebra routines
   SCALAPACK package :  Parallel linear algebra routines


Your calculation utilizes the atom-pairwise dispersion correction
with the Becke-Johnson damping scheme (D3BJ)
Cite in your paper:
S.Grimme, S.Ehrlich, L.Goerigk, J Comput Chem, (2011), 32, 1456–1465 
S.Grimme, J.Antony, S.Ehrlich and H.Krieg, J.Chem.Phys., 132, (2010), 154104 
   

----- Orbital basis set information -----
Your calculation utilizes the basis: def2-TZVPPD
   F. Weigend and R. Ahlrichs, Phys. Chem. Chem. Phys. 7, 3297 (2005).
   D. Rappoport and F. Furche, J. Chem. Phys. 133 134105 (2010).

----- AuxC basis set information -----
Your calculation utilizes the auxiliary basis: def2-TZVPPD/C
   A. Hellweg, C. Hattig, S. Hofener and W. Klopper, Theor. Chem. Acc. 117, 587 (2007).

----- AuxJK basis set information -----
Your calculation utilizes the auxiliary basis: def2/JK
   H-Ba, Hf-Rn: F. Weigend, J. Comput. Chem. 29, 167 (2008).

================================================================================
                                        WARNINGS
                       Please study these warnings very carefully!
================================================================================


WARNING: No MP2 level density has been requested!
         To caclulate MP2 level properties use
         %mp2 Density relaxed end
         or
         %mp2 Density unrelaxed end
         Otherwise for double-hybrid DFT only the energy is correct!

WARNING: There are different parametrizations of Gershom Martin's DSD-DFs
         for use with and without D3(BJ)!
         You are using the D3(BJ) parametrized version,
         consistent with the 2013 article (S. Kozuch and J. M. L. Martin, JCC 2013, 34, 2327)

WARNING: The frozen-core approximation is turned on by default for 
         the MP2 part of double-hybrid DFT.

INFO   : the flag for use of LIBINT has been found!

================================================================================
                                       INPUT FILE
================================================================================
NAME = 176_al.in
|  1> #
|  2> # 176_al ri-DSD-BLYP/2013-D3BJ/Def2-TZVPPD
|  3> #
|  4> ! rijk ri-dsd-blyp/2013 d3bj def2-tzvppd def2/jk def2-tzvppd/c grid4 nofinalgrid
|  5> 
|  6> *xyz 0 1
|  7> Al         0.00000        0.00000        0.00000
|  8> H          0.80046       -1.38644        0.00000
|  9> H          0.80046        1.38644        0.00000
| 10> H         -1.60093        0.00000        0.00000
| 11> *
| 12> 
| 13> %maxcore 5000
| 14> 
| 15> %pal
| 16> nprocs = 24
| 17> end
| 18> 
| 19> 
| 20>                          ****END OF INPUT****
================================================================================

                       ****************************
                       * Single Point Calculation *
                       ****************************

---------------------------------
CARTESIAN COORDINATES (ANGSTROEM)
---------------------------------
  Al     0.000000    0.000000    0.000000
  H      0.800460   -1.386440    0.000000
  H      0.800460    1.386440    0.000000
  H     -1.600930    0.000000    0.000000

----------------------------
CARTESIAN COORDINATES (A.U.)
----------------------------
  NO LB      ZA    FRAG     MASS         X           Y           Z
   0 Al   13.0000    0    26.982    0.000000    0.000000    0.000000
   1 H     1.0000    0     1.008    1.512650   -2.619992    0.000000
   2 H     1.0000    0     1.008    1.512650    2.619992    0.000000
   3 H     1.0000    0     1.008   -3.025319    0.000000    0.000000

--------------------------------
INTERNAL COORDINATES (ANGSTROEM)
--------------------------------
 Al     0   0   0     0.000000000000     0.00000000     0.00000000
 H      1   0   0     1.600922260823     0.00000000     0.00000000
 H      1   2   0     1.600922260823   120.00009343     0.00000000
 H      1   2   3     1.600930000000   119.99995328   180.00000000

---------------------------
INTERNAL COORDINATES (A.U.)
---------------------------
 Al     0   0   0     0.000000000000     0.00000000     0.00000000
 H      1   0   0     3.025304634654     0.00000000     0.00000000
 H      1   2   0     3.025304634654   120.00009343     0.00000000
 H      1   2   3     3.025319259579   119.99995328   180.00000000

---------------------
BASIS SET INFORMATION
---------------------
There are 2 groups of distinct atoms

 Group   1 Type Al  : 15s9p4d1f contracted to 6s5p4d1f pattern {732111/51111/1111/1}
 Group   2 Type H   : 5s3p1d contracted to 3s3p1d pattern {311/111/1}

Atom   0Al   basis set group =>   1
Atom   1H    basis set group =>   2
Atom   2H    basis set group =>   2
Atom   3H    basis set group =>   2
---------------------------------
AUXILIARY/C BASIS SET INFORMATION
---------------------------------
There are 2 groups of distinct atoms

 Group   1 Type Al  : 12s9p8d6f2g contracted to 12s9p8d6f2g pattern {111111111111/111111111/11111111/111111/11}
 Group   2 Type H   : 5s4p3d1f contracted to 5s4p3d1f pattern {11111/1111/111/1}

Atom   0Al   basis set group =>   1
Atom   1H    basis set group =>   2
Atom   2H    basis set group =>   2
Atom   3H    basis set group =>   2
----------------------------------
AUXILIARY/JK BASIS SET INFORMATION
----------------------------------
There are 2 groups of distinct atoms

 Group   1 Type Al  : 16s12p10d4f1g contracted to 13s11p9d4f1g pattern {4111111111111/21111111111/211111111/1111/1}
 Group   2 Type H   : 4s2p2d contracted to 2s2p2d pattern {31/11/11}

Atom   0Al   basis set group =>   1
Atom   1H    basis set group =>   2
Atom   2H    basis set group =>   2
Atom   3H    basis set group =>   2


           ************************************************************
           *        Program running with 24 parallel MPI-processes    *
           *              working on a common directory               *
           ************************************************************
------------------------------------------------------------------------------
                           ORCA GTO INTEGRAL CALCULATION
                           -- RI-GTO INTEGRALS CHOSEN --
------------------------------------------------------------------------------

                         BASIS SET STATISTICS AND STARTUP INFO

Gaussian basis set:
 # of primitive gaussian shells          ...   56
 # of primitive gaussian functions       ...  126
 # of contracted shells                  ...   37
 # of contracted basis functions         ...   99
 Highest angular momentum                ...    3
 Maximum contraction depth               ...    7
Auxiliary gaussian basis set:
 # of primitive gaussian shells          ...   67
 # of primitive gaussian functions       ...  199
 # of contracted shells                  ...   56
 # of contracted aux-basis functions     ...  182
 Highest angular momentum                ...    4
 Maximum contraction depth               ...    4
Ratio of auxiliary to basis functions    ...  1.84
Integral package used                  ... LIBINT
 One Electron integrals                  ... done
 Ordering auxiliary basis shells         ... done
 Integral threshhold             Thresh  ...  1.000e-10
 Primitive cut-off               TCut    ...  1.000e-11
 Pre-screening matrix                    ... done
 Shell pair data                         ... 
 Ordering of the shell pairs             ... done (   0.000 sec) 703 of 703 pairs
 Determination of significant pairs      ... done (   0.000 sec)
 Creation of shell pair data             ... done (   0.000 sec)
 Storage of shell pair data              ... done (   0.033 sec)
 Shell pair data done in (   0.033 sec)
 Computing two index integrals           ... done
 Cholesky decomposition of the V-matrix  ... done


Timings:
 Total evaluation time                   ...   0.199 sec (  0.003 min)
 One electron matrix time                ...   0.031 sec (  0.001 min) = 15.4%
 Schwartz matrix evaluation time         ...   0.110 sec (  0.002 min) = 55.2%
 Two index repulsion integral time       ...   0.001 sec (  0.000 min) =  0.4%
 Cholesky decomposition of V             ...   0.001 sec (  0.000 min) =  0.6%
 Three index repulsion integral time     ...   0.000 sec (  0.000 min) =  0.0%



           ************************************************************
           *        Program running with 24 parallel MPI-processes    *
           *              working on a common directory               *
           ************************************************************
-------------------------------------------------------------------------------
                                 ORCA SCF
-------------------------------------------------------------------------------

------------
SCF SETTINGS
------------
Hamiltonian:
 Density Functional     Method          .... DFT(GTOs)
 Exchange Functional    Exchange        .... B88
   X-Alpha parameter    XAlpha          ....  0.666667
   Becke's b parameter  XBeta           ....  0.004200
 Correlation Functional Correlation     .... LYP
 LDA part of GGA corr.  LDAOpt          .... VWN-5
 Gradients option       PostSCFGGA      .... off
 Hybrid DFT is turned on
   Fraction HF Exchange ScalHFX         ....  0.710000
   Scaling of DF-GGA-X  ScalDFX         ....  0.290000
   Scaling of DF-GGA-C  ScalDFC         ....  0.540000
   Scaling of DF-LDA-C  ScalLDAC        ....  0.540000
   Perturbative correction              ....  1.000000
   Density functional embedding theory  .... OFF
 RI-approximation to the Coulomb term is turned on
   Number of auxiliary basis functions  .... 182
   RI-JK (J+K treated both via RI)      .... on


General Settings:
 Integral files         IntName         .... 176_al
 Hartree-Fock type      HFTyp           .... RHF
 Total Charge           Charge          ....    0
 Multiplicity           Mult            ....    1
 Number of Electrons    NEL             ....   16
 Basis Dimension        Dim             ....   99
 Nuclear Repulsion      ENuc            ....     13.4637631879 Eh

Convergence Acceleration:
 DIIS                   CNVDIIS         .... on
   Start iteration      DIISMaxIt       ....    12
   Startup error        DIISStart       ....  0.200000
   # of expansion vecs  DIISMaxEq       ....     5
   Bias factor          DIISBfac        ....   1.050
   Max. coefficient     DIISMaxC        ....  10.000
 Newton-Raphson         CNVNR           .... off
 SOSCF                  CNVSOSCF        .... on
   Start iteration      SOSCFMaxIt      ....   150
   Startup grad/error   SOSCFStart      ....  0.003300
 Level Shifting         CNVShift        .... on
   Level shift para.    LevelShift      ....    0.2500
   Turn off err/grad.   ShiftErr        ....    0.0010
 Zerner damping         CNVZerner       .... off
 Static damping         CNVDamp         .... on
   Fraction old density DampFac         ....    0.7000
   Max. Damping (<1)    DampMax         ....    0.9800
   Min. Damping (>=0)   DampMin         ....    0.0000
   Turn off err/grad.   DampErr         ....    0.1000
 Fernandez-Rico         CNVRico         .... off

SCF Procedure:
 Maximum # iterations   MaxIter         ....   125
 SCF integral mode      SCFMode         .... Direct
   Integral package                     .... LIBINT
 Reset frequency        DirectResetFreq ....    20
 Integral Threshold     Thresh          ....  1.000e-10 Eh
 Primitive CutOff       TCut            ....  1.000e-11 Eh

Convergence Tolerance:
 Convergence Check Mode ConvCheckMode   .... Total+1el-Energy
 Convergence forced     ConvForced      .... 0
 Energy Change          TolE            ....  1.000e-06 Eh
 1-El. energy change                    ....  1.000e-03 Eh
 Orbital Gradient       TolG            ....  5.000e-05
 Orbital Rotation angle TolX            ....  5.000e-05
 DIIS Error             TolErr          ....  1.000e-06


Diagonalization of the overlap matrix:
Smallest eigenvalue                        ... 9.322e-04
Time for diagonalization                   ...    0.003 sec
Threshold for overlap eigenvalues          ... 1.000e-08
Number of eigenvalues below threshold      ... 0
Time for construction of square roots      ...    0.001 sec
Total time needed                          ...    0.004 sec

-------------------
DFT GRID GENERATION
-------------------

General Integration Accuracy     IntAcc      ...  4.670
Radial Grid Type                 RadialGrid  ... Gauss-Chebyshev
Angular Grid (max. acc.)         AngularGrid ... Lebedev-302
Angular grid pruning method      GridPruning ... 3 (G Style)
Weight generation scheme         WeightScheme... Becke
Basis function cutoff            BFCut       ...    1.0000e-10
Integration weight cutoff        WCut        ...    1.0000e-14
Grids for H and He will be reduced by one unit

# of grid points (after initial pruning)     ...  17028 (   0.0 sec)
# of grid points (after weights+screening)   ...  16823 (   0.0 sec)
nearest neighbour list constructed           ...    0.0 sec
Grid point re-assignment to atoms done       ...    0.0 sec
Grid point division into batches done        ...    0.1 sec
Reduced shell lists constructed in    0.1 sec

Total number of grid points                  ...    16823
Total number of batches                      ...      265
Average number of points per batch           ...       63
Average number of grid points per atom       ...     4206
Average number of shells per batch           ...    30.62 (82.74%)
Average number of basis functions per batch  ...    82.92 (83.76%)
Average number of large shells per batch     ...    26.46 (86.43%)
Average number of large basis fcns per batch ...    72.00 (86.83%)
Average number of aux-shells per batch       ...    30.62 (54.67%)
Average number of aux functions per batch    ...    82.92 (45.56%)
Maximum spatial batch extension              ...   4.35,  3.64, 23.40 au
Average spatial batch extension              ...   0.12,  0.13,  0.27 au

Time for grid setup =    0.130 sec

------------------------------
INITIAL GUESS: MODEL POTENTIAL
------------------------------
Loading Hartree-Fock densities                     ... done
Calculating cut-offs                               ... done
Setting up the integral package                    ... done
Initializing the effective Hamiltonian             ... done
Starting the Coulomb interaction                   ... done (   0.0 sec)
Reading the grid                                   ... done
Mapping shells                                     ... done
Starting the XC term evaluation                    ... done (   0.0 sec)
  promolecular density results
     # of electrons  =     15.998523046
     EX              =    -18.952674425
     EC              =     -0.058641966
     EX+EC           =    -19.011316391
Transforming the Hamiltonian                       ... done (   0.0 sec)
Diagonalizing the Hamiltonian                      ... done (   0.0 sec)
Back transforming the eigenvectors                 ... done (   0.0 sec)
Now organizing SCF variables                       ... done
                      ------------------
                      INITIAL GUESS DONE (   0.3 sec)
                      ------------------
--------------
SCF ITERATIONS
--------------
ITER       Energy         Delta-E        Max-DP      RMS-DP      [F,P]     Damp
  0   -243.9152461759   0.000000000000 0.02565709  0.00074147  0.1067521 0.7000
  1   -243.9218834420  -0.006637266139 0.02744940  0.00082039  0.1050403 0.7000
                               ***Turning on DIIS***
  2   -243.9223870577  -0.000503615624 0.07108475  0.00219532  0.0793346 0.0000
  3   -243.9419266132  -0.019539555558 0.01926009  0.00042410  0.0246712 0.0000
  4   -243.9430813752  -0.001154761929 0.00512576  0.00017075  0.0097305 0.0000
  5   -243.9432742823  -0.000192907093 0.00260337  0.00007735  0.0036657 0.0000
                      *** Initiating the SOSCF procedure ***
                           *** Shutting down DIIS ***
                      *** Re-Reading the Fockian *** 
                      *** Removing any level shift *** 
ITER      Energy       Delta-E        Grad      Rot      Max-DP    RMS-DP
  6   -243.94331597  -0.0000416903  0.000516  0.000516  0.001602  0.000043
  7   -243.94332063  -0.0000046559  0.000069  0.000072  0.000372  0.000011
                 **** Energy Check signals convergence ****
              ***Rediagonalizing the Fockian in SOSCF/NRSCF***

               *****************************************************
               *                     SUCCESS                       *
               *           SCF CONVERGED AFTER   8 CYCLES          *
               *****************************************************


----------------
TOTAL SCF ENERGY
----------------

Total Energy       :         -243.94332069 Eh           -6638.03523 eV

Components:
Nuclear Repulsion  :           13.46376319 Eh             366.36762 eV
Electronic Energy  :         -257.40708388 Eh           -7004.40285 eV
One Electron Energy:         -365.43715078 Eh           -9944.05042 eV
Two Electron Energy:          108.03006690 Eh            2939.64757 eV

Virial components:
Potential Energy   :         -487.55705001 Eh          -13267.10182 eV
Kinetic Energy     :          243.61372932 Eh            6629.06659 eV
Virial Ratio       :            2.00135293


DFT components:
N(Alpha)           :        8.000001949103 electrons
N(Beta)            :        8.000001949103 electrons
N(Total)           :       16.000003898205 electrons
E(X)               :       -5.556879049475 Eh       
E(C)               :       -0.309600256713 Eh       
E(XC)              :       -5.866479306188 Eh       
DFET-embed. en.    :        0.000000000000 Eh       

---------------
SCF CONVERGENCE
---------------

  Last Energy change         ...   -6.2647e-08  Tolerance :   1.0000e-06
  Last MAX-Density change    ...    1.1202e-04  Tolerance :   1.0000e-05
  Last RMS-Density change    ...    2.8491e-06  Tolerance :   1.0000e-06
  Last Orbital Gradient      ...    1.1433e-05  Tolerance :   5.0000e-05
  Last Orbital Rotation      ...    3.0536e-05  Tolerance :   5.0000e-05

             **** THE GBW FILE WAS UPDATED (176_al.gbw) ****
             **** DENSITY FILE WAS UPDATED (176_al.scfp) ****
             **** ENERGY FILE WAS UPDATED (176_al.en.tmp) ****
             **** THE GBW FILE WAS UPDATED (176_al.gbw) ****
             **** DENSITY FILE WAS UPDATED (176_al.scfp) ****
----------------
ORBITAL ENERGIES
----------------

  NO   OCC          E(Eh)            E(eV) 
   0   2.0000     -57.602805     -1567.4520 
   1   2.0000      -4.622755      -125.7916 
   2   2.0000      -3.026703       -82.3608 
   3   2.0000      -3.021586       -82.2215 
   4   2.0000      -3.021586       -82.2215 
   5   2.0000      -0.517302       -14.0765 
   6   2.0000      -0.387738       -10.5509 
   7   2.0000      -0.387738       -10.5509 
   8   0.0000      -0.006442        -0.1753 
   9   0.0000       0.036975         1.0061 
  10   0.0000       0.075734         2.0608 
  11   0.0000       0.080781         2.1982 
  12   0.0000       0.080784         2.1982 
  13   0.0000       0.096956         2.6383 
  14   0.0000       0.096960         2.6384 
  15   0.0000       0.125893         3.4257 
  16   0.0000       0.125895         3.4258 
  17   0.0000       0.170539         4.6406 
  18   0.0000       0.210475         5.7273 
  19   0.0000       0.210654         5.7322 
  20   0.0000       0.210658         5.7323 
  21   0.0000       0.251666         6.8482 
  22   0.0000       0.262637         7.1467 
  23   0.0000       0.262640         7.1468 
  24   0.0000       0.283960         7.7269 
  25   0.0000       0.316677         8.6172 
  26   0.0000       0.316681         8.6173 
  27   0.0000       0.333294         9.0694 
  28   0.0000       0.343209         9.3392 
  29   0.0000       0.359663         9.7869 
  30   0.0000       0.359668         9.7871 
  31   0.0000       0.442754        12.0479 
  32   0.0000       0.442754        12.0480 
  33   0.0000       0.492720        13.4076 
  34   0.0000       0.543666        14.7939 
  35   0.0000       0.543672        14.7941 
  36   0.0000       0.635037        17.2802 
  37   0.0000       0.692693        18.8491 
  38   0.0000       0.692695        18.8492 
  39   0.0000       0.828508        22.5449 
  40   0.0000       0.828516        22.5451 
  41   0.0000       0.865016        23.5383 
  42   0.0000       0.896130        24.3849 
  43   0.0000       0.897369        24.4187 
  44   0.0000       0.899777        24.4842 
  45   0.0000       0.899779        24.4842 
  46   0.0000       0.955033        25.9878 
  47   0.0000       0.955042        25.9880 
  48   0.0000       1.003370        27.3031 
  49   0.0000       1.003380        27.3034 
  50   0.0000       1.195334        32.5267 
  51   0.0000       1.204809        32.7845 
  52   0.0000       1.204811        32.7846 
  53   0.0000       1.207709        32.8634 
  54   0.0000       1.253599        34.1122 
  55   0.0000       1.253600        34.1122 
  56   0.0000       1.480284        40.2806 
  57   0.0000       1.592530        43.3349 
  58   0.0000       1.635415        44.5019 
  59   0.0000       1.635420        44.5021 
  60   0.0000       2.045270        55.6546 
  61   0.0000       2.326632        63.3109 
  62   0.0000       2.326641        63.3111 
  63   0.0000       2.980812        81.1120 
  64   0.0000       3.053454        83.0887 
  65   0.0000       3.053454        83.0887 
  66   0.0000       3.311064        90.0986 
  67   0.0000       3.311065        90.0986 
  68   0.0000       3.375597        91.8547 
  69   0.0000       3.403062        92.6020 
  70   0.0000       3.403064        92.6021 
  71   0.0000       3.484823        94.8269 
  72   0.0000       3.512659        95.5843 
  73   0.0000       3.512666        95.5845 
  74   0.0000       3.539609        96.3176 
  75   0.0000       3.541082        96.3577 
  76   0.0000       3.541083        96.3578 
  77   0.0000       3.625706        98.6605 
  78   0.0000       3.767554       102.5203 
  79   0.0000       3.767564       102.5206 
  80   0.0000       3.835343       104.3650 
  81   0.0000       3.835351       104.3652 
  82   0.0000       3.838274       104.4448 
  83   0.0000       3.889061       105.8267 
  84   0.0000       4.113688       111.9391 
  85   0.0000       4.113694       111.9393 
  86   0.0000       4.170361       113.4813 
  87   0.0000       4.216462       114.7358 
  88   0.0000       4.216474       114.7361 
  89   0.0000       4.306657       117.1901 
  90   0.0000       4.306670       117.1904 
  91   0.0000       4.539754       123.5330 
  92   0.0000       4.547184       123.7352 
  93   0.0000       4.731796       128.7587 
  94   0.0000       4.731800       128.7588 
  95   0.0000       8.793369       239.2797 
  96   0.0000       9.593675       261.0572 
  97   0.0000      10.009594       272.3749 
  98   0.0000      10.009598       272.3750 

                    ********************************
                    * MULLIKEN POPULATION ANALYSIS *
                    ********************************

-----------------------
MULLIKEN ATOMIC CHARGES
-----------------------
   0 Al:    0.621091
   1 H :   -0.207037
   2 H :   -0.207037
   3 H :   -0.207016
Sum of atomic charges:    0.0000000

--------------------------------
MULLIKEN REDUCED ORBITAL CHARGES
--------------------------------
  0 Als       :     4.984222  s :     4.984222
      pz      :     1.999997  p :     7.191209
      px      :     2.595616
      py      :     2.595596
      dz2     :     0.017551  d :     0.187541
      dxz     :     0.000000
      dyz     :     0.000000
      dx2y2   :     0.084995
      dxy     :     0.084995
      f0      :     0.000000  f :     0.015937
      f+1     :     0.002271
      f-1     :     0.002270
      f+2     :     0.000000
      f-2     :     0.000000
      f+3     :     0.011395
      f-3     :    -0.000000
  1 H s       :     1.192740  s :     1.192740
      pz      :    -0.000004  p :     0.013883
      px      :     0.007576
      py      :     0.006310
      dz2     :     0.000079  d :     0.000415
      dxz     :     0.000001
      dyz     :     0.000004
      dx2y2   :     0.000111
      dxy     :     0.000220
  2 H s       :     1.192740  s :     1.192740
      pz      :    -0.000004  p :     0.013883
      px      :     0.007576
      py      :     0.006310
      dz2     :     0.000079  d :     0.000415
      dxz     :     0.000001
      dyz     :     0.000004
      dx2y2   :     0.000111
      dxy     :     0.000220
  3 H s       :     1.192713  s :     1.192713
      pz      :    -0.000004  p :     0.013888
      px      :     0.005678
      py      :     0.008214
      dz2     :     0.000079  d :     0.000415
      dxz     :     0.000005
      dyz     :    -0.000000
      dx2y2   :     0.000274
      dxy     :     0.000057


                     *******************************
                     * LOEWDIN POPULATION ANALYSIS *
                     *******************************

----------------------
LOEWDIN ATOMIC CHARGES
----------------------
   0 Al:    0.640538
   1 H :   -0.213514
   2 H :   -0.213514
   3 H :   -0.213510

-------------------------------
LOEWDIN REDUCED ORBITAL CHARGES
-------------------------------
  0 Als       :     4.682124  s :     4.682124
      pz      :     1.998728  p :     7.283175
      px      :     2.642225
      py      :     2.642223
      dz2     :     0.033992  d :     0.351040
      dxz     :     0.000000
      dyz     :     0.000000
      dx2y2   :     0.158524
      dxy     :     0.158524
      f0      :     0.000000  f :     0.043122
      f+1     :     0.008741
      f-1     :     0.008741
      f+2     :     0.000000
      f-2     :     0.000000
      f+3     :     0.025640
      f-3     :     0.000000
  1 H s       :     1.067939  s :     1.067939
      pz      :     0.000410  p :     0.143699
      px      :     0.056933
      py      :     0.086357
      dz2     :     0.000384  d :     0.001876
      dxz     :     0.000004
      dyz     :     0.000011
      dx2y2   :     0.000543
      dxy     :     0.000934
  2 H s       :     1.067939  s :     1.067939
      pz      :     0.000410  p :     0.143699
      px      :     0.056933
      py      :     0.086357
      dz2     :     0.000384  d :     0.001876
      dxz     :     0.000004
      dyz     :     0.000011
      dx2y2   :     0.000543
      dxy     :     0.000934
  3 H s       :     1.067937  s :     1.067937
      pz      :     0.000410  p :     0.143698
      px      :     0.101068
      py      :     0.042220
      dz2     :     0.000384  d :     0.001876
      dxz     :     0.000014
      dyz     :     0.000000
      dx2y2   :     0.001129
      dxy     :     0.000348


                      *****************************
                      * MAYER POPULATION ANALYSIS *
                      *****************************

  NA   - Mulliken gross atomic population
  ZA   - Total nuclear charge
  QA   - Mulliken gross atomic charge
  VA   - Mayer's total valence
  BVA  - Mayer's bonded valence
  FA   - Mayer's free valence

  ATOM       NA         ZA         QA         VA         BVA        FA
  0 Al    12.3789    13.0000     0.6211     2.7849     2.7849     0.0000
  1 H      1.2070     1.0000    -0.2070     0.9533     0.9533     0.0000
  2 H      1.2070     1.0000    -0.2070     0.9533     0.9533    -0.0000
  3 H      1.2070     1.0000    -0.2070     0.9533     0.9533     0.0000

  Mayer bond orders larger than 0.100000
B(  0-Al,  1-H ) :   0.9283 B(  0-Al,  2-H ) :   0.9283 B(  0-Al,  3-H ) :   0.9283 


-------
TIMINGS
-------

Total SCF time: 0 days 0 hours 0 min 1 sec 

Total time                  ....       1.240 sec
Sum of individual times     ....       1.127 sec  ( 90.9%)

Fock matrix formation       ....       0.856 sec  ( 69.1%)
  XC integration            ....       0.087 sec  ( 10.2% of F)
    Basis function eval.    ....       0.016 sec  ( 18.0% of XC)
    Density eval.           ....       0.009 sec  ( 10.3% of XC)
    XC-Functional eval.     ....       0.006 sec  (  6.5% of XC)
    XC-Potential eval.      ....       0.012 sec  ( 14.0% of XC)
Diagonalization             ....       0.009 sec  (  0.8%)
Density matrix formation    ....       0.002 sec  (  0.2%)
Population analysis         ....       0.003 sec  (  0.2%)
Initial guess               ....       0.121 sec  (  9.7%)
Orbital Transformation      ....       0.000 sec  (  0.0%)
Orbital Orthonormalization  ....       0.000 sec  (  0.0%)
DIIS solution               ....       0.004 sec  (  0.3%)
SOSCF solution              ....       0.001 sec  (  0.1%)
Grid generation             ....       0.130 sec  ( 10.5%)


           ************************************************************
           *        Program running with 24 parallel MPI-processes    *
           *              working on a common directory               *
           ************************************************************

------------------------------------------------------------------------------
                                ORCA  MP2 
------------------------------------------------------------------------------

Freezing NCore=10 chemical core electrons

-------------
RI-MP2 ENERGY
-------------
Dimension of the basis                    ...   99
Memory devoted to MP2                     ... 5000 MB   
Data format for buffers                   ... DOUBLE
Compression type for matrix containers    ... UNCOMPRESSED
Scaling for aa/bb pairs                   ...   4.000e-01
Scaling for ab pairs                      ...   4.700e-01
Overall scaling of the MP2 energy         ...   1.000e+00
Calculating two index integrals           ... done (    0.001 sec)
Cholesky decomposition of V**-1           ... done (    0.008 sec)

-----------------
RI-TRANSFORMATION (AUX index driven)
-----------------

Dimension of the orbital-basis         ... 99
Dimension of the aux-basis             ... 256
Transformation of internal/external MOs...    5-   7 to    8-  98
Number Format for Storage              ... Double (8 Byte)
Integral mode                          ... Direct

First Phase: integral generation and transformation of MO indices
  Aux angular momentum 0               ... done (    0.001 sec)
  Aux angular momentum 1               ... done (    0.000 sec)
  Aux angular momentum 2               ... done (    0.001 sec)
  Aux angular momentum 3               ... done (    0.001 sec)
  Aux angular momentum 4               ... done (    0.001 sec)
Closing buffer VIA ( 0.00 GB; CompressionRatio= 0.99)
  Phase 1 completed in     0.119 sec
Second Phase: sorting and transformation of aux index

IA-Transformation
Memory available                       ... 4999 MB 
Max. # MO pairs treated in a batch     ... 1    
# of internal orbitals                 ... 3
# batches for internal orbitals        ... 1
Closing buffer IAV ( 0.00 GB; CompressionRatio= 1.00)
(ia|v) transformation done in     0.002 sec

  Phase 2 completed in     0.005 sec
RI-Integral transformation completed in     0.125 sec
Opening buffers                              ... done

Starting loop over batches of integrals:

Operator 0  - window                       ... (  5-  7)x(  8- 98)
Operator 0  - Memory available             ...  5000 MB
Operator 0  - Memory needed per MO         ...   0.2 MB
Operator 0  - Number of orbitals per batch ... 1
Operator 0  - Number of batches            ... 1

OPERATOR  0   PASS   0:  MOs     5 ...    5 +    6 ...    6 +    7 ...    7
  Reading integrals       ... ok
Time spent in pair loops =     0.001 sec
Deleting buffer (Ka|jb)[aa] ...done

-----------------------------------------------
 RI-MP2 CORRELATION ENERGY:     -0.049701748 Eh
-----------------------------------------------


-------
TIMINGS
-------

Total time                :    0.153 sec
Integral trafo            :    0.141 sec ( 92.3%)
I/O of integrals          :    0.000 sec (  0.1%)
K(i,j) Operators          :    0.000 sec (  0.1%)
T(i,j) pair energies      :    0.000 sec (  0.0%)
V-calculation             :    0.001 sec (  0.9%)
V**(-1/2)                 :    0.008 sec (  5.2%)
Gamma(ia|P)               :    0.000 sec (  0.0%)
Gamma-Trafo               :    0.000 sec (  0.0%)
D(virtual)                :    0.000 sec (  0.0%)
D(internal)               :    0.000 sec (  0.0%)
W(virtual)                :    0.000 sec (  0.0%)
W(internal)               :    0.000 sec (  0.0%)
L(virtual)                :    0.000 sec (  0.0%)
L(internal)               :    0.000 sec (  0.0%)
G(D)                      :    0.000 sec (  0.0%)
G(Z)                      :    0.000 sec (  0.0%)
Z-Vector Solution         :    0.000 sec (  0.0%)
Z-Vector Solution         :    0.000 sec (  0.0%)
3-Index Derivative 
+ Separable RIJ part      :    0.000 sec (  0.0%)
2-Index Derivative 
+ Separable RIJ part      :    0.000 sec (  0.0%)
Separable Gradient (X)    :    0.000 sec (  0.0%)


---------------------------------------
MP2 TOTAL ENERGY:     -243.993022439 Eh
---------------------------------------


-------------------------------------------------------------------------------
                          DFT DISPERSION CORRECTION                            
                                                                               
                              DFTD3 V3.1  Rev 1                                
                          USING Becke-Johnson damping                          
-------------------------------------------------------------------------------
The DSD-BLYP/2013 functional is recognized
Active option DFTDOPT                   ...         4   

molecular C6(AA) [au] = 312.607161 


            DFT-D V3
 parameters
 s6 scaling factor         :     0.5700 
 a1 scaling factor         :     0.0000 
 s8 scaling factor         :     0.0000 
 a2 scaling factor         :     5.4000 
 ad hoc parameters k1-k3   :    16.0000     1.3333    -4.0000 

 Edisp/kcal,au: -0.975666552308  -0.001554823455 
 E6   /kcal   :  -0.975666552 
 E8   /kcal   :  -0.000000000 
 % E8         :   0.000000000 

-------------------------   ----------------
Dispersion correction           -0.001554823
-------------------------   ----------------


-------------------------   --------------------
FINAL SINGLE POINT ENERGY      -243.994577262623
-------------------------   --------------------


                            ***************************************
                            *     ORCA property calculations      *
                            ***************************************


  WARNING: The energy has been calculated at the MP2 level but the densities
           used in the property calculations are still SCF densities
           MP2 response densities have not been calculated 
           use %mp2 Density relaxed end
           or  %mp2 Density unrelaxed end

                                    ---------------------
                                    Active property flags
                                    ---------------------
   (+) Dipole Moment


------------------------------------------------------------------------------
                       ORCA ELECTRIC PROPERTIES CALCULATION
------------------------------------------------------------------------------

Dipole Moment Calculation                       ... on
Quadrupole Moment Calculation                   ... off
Polarizability Calculation                      ... off
GBWName                                         ... 176_al.gbw
Electron density file                           ... 176_al.scfp
The origin for moment calculation is the CENTER OF MASS  = (-0.000001,  0.000000  0.000000)

-------------
DIPOLE MOMENT
-------------
                                X             Y             Z
Electronic contribution:      0.00001       0.00000       0.00000
Nuclear contribution   :     -0.00001       0.00000       0.00000
                        -----------------------------------------
Total Dipole Moment    :      0.00000       0.00000       0.00000
                        -----------------------------------------
Magnitude (a.u.)       :      0.00000
Magnitude (Debye)      :      0.00001



--------------------
Rotational spectrum 
--------------------
 
Rotational constants in cm-1:     4.350150     4.350130     2.175070 
Rotational constants in MHz : 130414.210579 130413.615544 65206.956531 

 Dipole components along the rotational axes: 
x,y,z [a.u.] :     0.000003     0.000000     0.000000 
x,y,z [Debye]:     0.000008     0.000000     0.000000 

 

Timings for individual modules:

Sum of individual times         ...        2.998 sec (=   0.050 min)
GTO integral calculation        ...        0.663 sec (=   0.011 min)  22.1 %
SCF iterations                  ...        1.656 sec (=   0.028 min)  55.2 %
MP2 module                      ...        0.680 sec (=   0.011 min)  22.7 %
                             ****ORCA TERMINATED NORMALLY****
TOTAL RUN TIME: 0 days 0 hours 0 minutes 3 seconds 606 msec
