
                                 *****************
                                 * O   R   C   A *
                                 *****************

           --- An Ab Initio, DFT and Semiempirical electronic structure package ---

                  #######################################################
                  #                        -***-                        #
                  #          Department of theory and spectroscopy      #
                  #               Directorship: Frank Neese             #
                  #        Max Planck Institute fuer Kohlenforschung    #
                  #                Kaiser Wilhelm Platz 1               #
                  #                 D-45470 Muelheim/Ruhr               #
                  #                      Germany                        #
                  #                                                     #
                  #                  All rights reserved                #
                  #                        -***-                        #
                  #######################################################


                         Program Version 4.2.0 -  RELEASE  -


 With contributions from (in alphabetic order):
   Daniel Aravena         : Magnetic Suceptibility
   Michael Atanasov       : Ab Initio Ligand Field Theory (pilot matlab implementation)
   Alexander A. Auer      : GIAO ZORA, VPT2
   Ute Becker             : Parallelization
   Giovanni Bistoni       : ED, misc. LED, open-shell LED, HFLED
   Martin Brehm           : Molecular dynamics
   Dmytro Bykov           : SCF Hessian
   Vijay G. Chilkuri      : MRCI spin determinant printing, contributions to CSF-ICE
   Dipayan Datta          : RHF DLPNO-CCSD density
   Achintya Kumar Dutta   : EOM-CC, STEOM-CC
   Dmitry Ganyushin       : Spin-Orbit,Spin-Spin,Magnetic field MRCI
   Miquel Garcia          : C-PCM Hessian, Gaussian charge scheme
   Yang Guo               : DLPNO-NEVPT2, CIM, IAO-localization
   Andreas Hansen         : Spin unrestricted coupled pair/coupled cluster methods
   Benjamin Helmich-Paris : CASSCF linear response (MC-RPA)
   Lee Huntington         : MR-EOM, pCC
   Robert Izsak           : Overlap fitted RIJCOSX, COSX-SCS-MP3, EOM
   Christian Kollmar      : KDIIS, OOCD, Brueckner-CCSD(T), CCSD density
   Simone Kossmann        : Meta GGA functionals, TD-DFT gradient, OOMP2, MP2 Hessian
   Martin Krupicka        : AUTO-CI
   Lucas Lang             : DCDCAS
   Dagmar Lenk            : GEPOL surface, SMD
   Dimitrios Liakos       : Extrapolation schemes; Compound Job, initial MDCI parallelization
   Dimitrios Manganas     : Further ROCIS development; embedding schemes
   Dimitrios Pantazis     : SARC Basis sets
   Taras Petrenko         : DFT Hessian,TD-DFT gradient, ASA, ECA, R-Raman, ABS, FL, XAS/XES, NRVS
   Peter Pinski           : DLPNO-MP2, DLPNO-MP2 Gradient
   Christoph Reimann      : Effective Core Potentials
   Marius Retegan         : Local ZFS, SOC
   Christoph Riplinger    : Optimizer, TS searches, QM/MM, DLPNO-CCSD(T), (RO)-DLPNO pert. Triples
   Tobias Risthaus        : Range-separated hybrids, TD-DFT gradient, RPA, STAB
   Michael Roemelt        : Original ROCIS implementation
   Masaaki Saitow         : Open-shell DLPNO-CCSD energy and density
   Barbara Sandhoefer     : DKH picture change effects
   Avijit Sen             : IP-ROCIS
   Kantharuban Sivalingam : CASSCF convergence, NEVPT2, FIC-MRCI
   Bernardo de Souza      : ESD, SOC TD-DFT
   Georgi Stoychev        : AutoAux, RI-MP2 NMR
   Willem Van den Heuvel  : Paramagnetic NMR
   Boris Wezisla          : Elementary symmetry handling
   Frank Wennmohs         : Technical directorship


 We gratefully acknowledge several colleagues who have allowed us to
 interface, adapt or use parts of their codes:
   Stefan Grimme, W. Hujo, H. Kruse,             : VdW corrections, initial TS optimization,
                  C. Bannwarth                     DFT functionals, gCP, sTDA/sTD-DF
   Ed Valeev, F. Pavosevic, A. Kumar             : LibInt (2-el integral package), F12 methods
   Garnet Chan, S. Sharma, J. Yang, R. Olivares  : DMRG
   Ulf Ekstrom                                   : XCFun DFT Library
   Mihaly Kallay                                 : mrcc  (arbitrary order and MRCC methods)
   Andreas Klamt, Michael Diedenhofen            : otool_cosmo (COSMO solvation model)
   Jiri Pittner, Ondrej Demel                    : Mk-CCSD
   Frank Weinhold                                : gennbo (NPA and NBO analysis)
   Christopher J. Cramer and Donald G. Truhlar   : smd solvation model
   Lars Goerigk                                  : TD-DFT with DH, B97 family of functionals
   V. Asgeirsson, H. Jonsson                     : NEB implementation
   FAccTs GmbH                                   : IRC, NEB, NEB-TS, Multilevel, MM, QM/MM, CI optimization
   S Lehtola, MJT Oliveira, MAL Marques          : LibXC Library


 Your calculation uses the libint2 library for the computation of 2-el integrals
 For citations please refer to: http://libint.valeyev.net

 Your ORCA version has been built with support for libXC version: 4.2.3
 For citations please refer to: https://tddft.org/programs/libxc/

 This ORCA versions uses:
   CBLAS   interface :  Fast vector & matrix operations
   LAPACKE interface :  Fast linear algebra routines
   SCALAPACK package :  Parallel linear algebra routines


Your calculation utilizes the atom-pairwise dispersion correction
with the Becke-Johnson damping scheme (D3BJ)
Cite in your paper:
S.Grimme, S.Ehrlich, L.Goerigk, J Comput Chem, (2011), 32, 1456–1465 
S.Grimme, J.Antony, S.Ehrlich and H.Krieg, J.Chem.Phys., 132, (2010), 154104 
   

----- Orbital basis set information -----
Your calculation utilizes the basis: def2-TZVPPD
   F. Weigend and R. Ahlrichs, Phys. Chem. Chem. Phys. 7, 3297 (2005).
   D. Rappoport and F. Furche, J. Chem. Phys. 133 134105 (2010).

----- AuxC basis set information -----
Your calculation utilizes the auxiliary basis: def2-TZVPPD/C
   A. Hellweg, C. Hattig, S. Hofener and W. Klopper, Theor. Chem. Acc. 117, 587 (2007).

----- AuxJK basis set information -----
Your calculation utilizes the auxiliary basis: def2/JK
   H-Ba, Hf-Rn: F. Weigend, J. Comput. Chem. 29, 167 (2008).

================================================================================
                                        WARNINGS
                       Please study these warnings very carefully!
================================================================================


WARNING: No MP2 level density has been requested!
         To caclulate MP2 level properties use
         %mp2 Density relaxed end
         or
         %mp2 Density unrelaxed end
         Otherwise for double-hybrid DFT only the energy is correct!

WARNING: There are different parametrizations of Gershom Martin's DSD-DFs
         for use with and without D3(BJ)!
         You are using the D3(BJ) parametrized version,
         consistent with the 2013 article (S. Kozuch and J. M. L. Martin, JCC 2013, 34, 2327)

WARNING: The frozen-core approximation is turned on by default for 
         the MP2 part of double-hybrid DFT.

INFO   : the flag for use of LIBINT has been found!

================================================================================
                                       INPUT FILE
================================================================================
NAME = 178_p.in
|  1> #
|  2> # 178_p ri-DSD-BLYP/2013-D3BJ/Def2-TZVPPD
|  3> #
|  4> ! rijk ri-dsd-blyp/2013 d3bj def2-tzvppd def2/jk def2-tzvppd/c grid4 nofinalgrid
|  5> 
|  6> *xyz 0 1
|  7> P          0.00000        0.00000        0.95949
|  8> P          0.00000        0.00000       -0.95949
|  9> *
| 10> 
| 11> %maxcore 5000
| 12> 
| 13> %pal
| 14> nprocs = 24
| 15> end
| 16> 
| 17> 
| 18>                          ****END OF INPUT****
================================================================================

                       ****************************
                       * Single Point Calculation *
                       ****************************

---------------------------------
CARTESIAN COORDINATES (ANGSTROEM)
---------------------------------
  P      0.000000    0.000000    0.959490
  P      0.000000    0.000000   -0.959490

----------------------------
CARTESIAN COORDINATES (A.U.)
----------------------------
  NO LB      ZA    FRAG     MASS         X           Y           Z
   0 P    15.0000    0    30.974    0.000000    0.000000    1.813173
   1 P    15.0000    0    30.974    0.000000    0.000000   -1.813173

--------------------------------
INTERNAL COORDINATES (ANGSTROEM)
--------------------------------
 P      0   0   0     0.000000000000     0.00000000     0.00000000
 P      1   0   0     1.918980000000     0.00000000     0.00000000

---------------------------
INTERNAL COORDINATES (A.U.)
---------------------------
 P      0   0   0     0.000000000000     0.00000000     0.00000000
 P      1   0   0     3.626346656472     0.00000000     0.00000000

---------------------
BASIS SET INFORMATION
---------------------
There are 1 groups of distinct atoms

 Group   1 Type P   : 15s9p4d1f contracted to 6s5p4d1f pattern {732111/51111/1111/1}

Atom   0P    basis set group =>   1
Atom   1P    basis set group =>   1
---------------------------------
AUXILIARY/C BASIS SET INFORMATION
---------------------------------
There are 1 groups of distinct atoms

 Group   1 Type P   : 12s9p8d6f2g contracted to 12s9p8d6f2g pattern {111111111111/111111111/11111111/111111/11}

Atom   0P    basis set group =>   1
Atom   1P    basis set group =>   1
----------------------------------
AUXILIARY/JK BASIS SET INFORMATION
----------------------------------
There are 1 groups of distinct atoms

 Group   1 Type P   : 16s12p10d4f1g contracted to 13s11p9d4f1g pattern {4111111111111/21111111111/211111111/1111/1}

Atom   0P    basis set group =>   1
Atom   1P    basis set group =>   1


           ************************************************************
           *        Program running with 24 parallel MPI-processes    *
           *              working on a common directory               *
           ************************************************************
------------------------------------------------------------------------------
                           ORCA GTO INTEGRAL CALCULATION
                           -- RI-GTO INTEGRALS CHOSEN --
------------------------------------------------------------------------------

                         BASIS SET STATISTICS AND STARTUP INFO

Gaussian basis set:
 # of primitive gaussian shells          ...   58
 # of primitive gaussian functions       ...  138
 # of contracted shells                  ...   32
 # of contracted basis functions         ...   96
 Highest angular momentum                ...    3
 Maximum contraction depth               ...    7
Auxiliary gaussian basis set:
 # of primitive gaussian shells          ...   86
 # of primitive gaussian functions       ...  278
 # of contracted shells                  ...   76
 # of contracted aux-basis functions     ...  256
 Highest angular momentum                ...    4
 Maximum contraction depth               ...    4
Ratio of auxiliary to basis functions    ...  2.67
Integral package used                  ... LIBINT
 One Electron integrals                  ... done
 Ordering auxiliary basis shells         ... done
 Integral threshhold             Thresh  ...  1.000e-10
 Primitive cut-off               TCut    ...  1.000e-11
 Pre-screening matrix                    ... done
 Shell pair data                         ... 
 Ordering of the shell pairs             ... done (   0.000 sec) 517 of 528 pairs
 Determination of significant pairs      ... done (   0.000 sec)
 Creation of shell pair data             ... done (   0.000 sec)
 Storage of shell pair data              ... done (   0.000 sec)
 Shell pair data done in (   0.001 sec)
 Computing two index integrals           ... done
 Cholesky decomposition of the V-matrix  ... done


Timings:
 Total evaluation time                   ...   0.200 sec (  0.003 min)
 One electron matrix time                ...   0.032 sec (  0.001 min) = 15.9%
 Schwartz matrix evaluation time         ...   0.143 sec (  0.002 min) = 71.5%
 Two index repulsion integral time       ...   0.001 sec (  0.000 min) =  0.6%
 Cholesky decomposition of V             ...   0.001 sec (  0.000 min) =  0.7%
 Three index repulsion integral time     ...   0.000 sec (  0.000 min) =  0.0%



           ************************************************************
           *        Program running with 24 parallel MPI-processes    *
           *              working on a common directory               *
           ************************************************************
-------------------------------------------------------------------------------
                                 ORCA SCF
-------------------------------------------------------------------------------

------------
SCF SETTINGS
------------
Hamiltonian:
 Density Functional     Method          .... DFT(GTOs)
 Exchange Functional    Exchange        .... B88
   X-Alpha parameter    XAlpha          ....  0.666667
   Becke's b parameter  XBeta           ....  0.004200
 Correlation Functional Correlation     .... LYP
 LDA part of GGA corr.  LDAOpt          .... VWN-5
 Gradients option       PostSCFGGA      .... off
 Hybrid DFT is turned on
   Fraction HF Exchange ScalHFX         ....  0.710000
   Scaling of DF-GGA-X  ScalDFX         ....  0.290000
   Scaling of DF-GGA-C  ScalDFC         ....  0.540000
   Scaling of DF-LDA-C  ScalLDAC        ....  0.540000
   Perturbative correction              ....  1.000000
   Density functional embedding theory  .... OFF
 RI-approximation to the Coulomb term is turned on
   Number of auxiliary basis functions  .... 256
   RI-JK (J+K treated both via RI)      .... on


General Settings:
 Integral files         IntName         .... 178_p
 Hartree-Fock type      HFTyp           .... RHF
 Total Charge           Charge          ....    0
 Multiplicity           Mult            ....    1
 Number of Electrons    NEL             ....   30
 Basis Dimension        Dim             ....   96
 Nuclear Repulsion      ENuc            ....     62.0459159905 Eh

Convergence Acceleration:
 DIIS                   CNVDIIS         .... on
   Start iteration      DIISMaxIt       ....    12
   Startup error        DIISStart       ....  0.200000
   # of expansion vecs  DIISMaxEq       ....     5
   Bias factor          DIISBfac        ....   1.050
   Max. coefficient     DIISMaxC        ....  10.000
 Newton-Raphson         CNVNR           .... off
 SOSCF                  CNVSOSCF        .... on
   Start iteration      SOSCFMaxIt      ....   150
   Startup grad/error   SOSCFStart      ....  0.003300
 Level Shifting         CNVShift        .... on
   Level shift para.    LevelShift      ....    0.2500
   Turn off err/grad.   ShiftErr        ....    0.0010
 Zerner damping         CNVZerner       .... off
 Static damping         CNVDamp         .... on
   Fraction old density DampFac         ....    0.7000
   Max. Damping (<1)    DampMax         ....    0.9800
   Min. Damping (>=0)   DampMin         ....    0.0000
   Turn off err/grad.   DampErr         ....    0.1000
 Fernandez-Rico         CNVRico         .... off

SCF Procedure:
 Maximum # iterations   MaxIter         ....   125
 SCF integral mode      SCFMode         .... Direct
   Integral package                     .... LIBINT
 Reset frequency        DirectResetFreq ....    20
 Integral Threshold     Thresh          ....  1.000e-10 Eh
 Primitive CutOff       TCut            ....  1.000e-11 Eh

Convergence Tolerance:
 Convergence Check Mode ConvCheckMode   .... Total+1el-Energy
 Convergence forced     ConvForced      .... 0
 Energy Change          TolE            ....  1.000e-06 Eh
 1-El. energy change                    ....  1.000e-03 Eh
 Orbital Gradient       TolG            ....  5.000e-05
 Orbital Rotation angle TolX            ....  5.000e-05
 DIIS Error             TolErr          ....  1.000e-06


Diagonalization of the overlap matrix:
Smallest eigenvalue                        ... 4.968e-04
Time for diagonalization                   ...    0.003 sec
Threshold for overlap eigenvalues          ... 1.000e-08
Number of eigenvalues below threshold      ... 0
Time for construction of square roots      ...    0.001 sec
Total time needed                          ...    0.004 sec

-------------------
DFT GRID GENERATION
-------------------

General Integration Accuracy     IntAcc      ...  4.670
Radial Grid Type                 RadialGrid  ... Gauss-Chebyshev
Angular Grid (max. acc.)         AngularGrid ... Lebedev-302
Angular grid pruning method      GridPruning ... 3 (G Style)
Weight generation scheme         WeightScheme... Becke
Basis function cutoff            BFCut       ...    1.0000e-10
Integration weight cutoff        WCut        ...    1.0000e-14
Grids for H and He will be reduced by one unit

# of grid points (after initial pruning)     ...  13692 (   0.0 sec)
# of grid points (after weights+screening)   ...  13664 (   0.0 sec)
nearest neighbour list constructed           ...    0.0 sec
Grid point re-assignment to atoms done       ...    0.0 sec
Grid point division into batches done        ...    0.1 sec
Reduced shell lists constructed in    0.1 sec

Total number of grid points                  ...    13664
Total number of batches                      ...      214
Average number of points per batch           ...       63
Average number of grid points per atom       ...     6832
Average number of shells per batch           ...     4.80 (15.00%)
Average number of basis functions per batch  ...    14.00 (14.58%)
Average number of large shells per batch     ...     3.70 (77.08%)
Average number of large basis fcns per batch ...    11.10 (79.29%)
Average number of aux-shells per batch       ...     4.80 ( 6.32%)
Average number of aux functions per batch    ...    14.00 ( 5.47%)
Maximum spatial batch extension              ...  21.45, 21.51, 14.48 au
Average spatial batch extension              ...   0.73,  0.73,  0.51 au

Time for grid setup =    0.160 sec

------------------------------
INITIAL GUESS: MODEL POTENTIAL
------------------------------
Loading Hartree-Fock densities                     ... done
Calculating cut-offs                               ... done
Setting up the integral package                    ... done
Initializing the effective Hamiltonian             ... done
Starting the Coulomb interaction                   ... done (   0.0 sec)
Reading the grid                                   ... done
Mapping shells                                     ... done
Starting the XC term evaluation                    ... done (   0.0 sec)
  promolecular density results
     # of electrons  =     30.000013005
     EX              =    -45.197839606
     EC              =     -0.151638156
     EX+EC           =    -45.349477762
Transforming the Hamiltonian                       ... done (   0.0 sec)
Diagonalizing the Hamiltonian                      ... done (   0.0 sec)
Back transforming the eigenvectors                 ... done (   0.0 sec)
Now organizing SCF variables                       ... done
                      ------------------
                      INITIAL GUESS DONE (   0.3 sec)
                      ------------------
--------------
SCF ITERATIONS
--------------
ITER       Energy         Delta-E        Max-DP      RMS-DP      [F,P]     Damp
  0   -682.1069101844   0.000000000000 0.03908010  0.00086874  0.0713429 0.7000
  1   -682.1118779432  -0.004967758774 0.04019850  0.00089335  0.0658024 0.7000
                               ***Turning on DIIS***
  2   -682.1136186967  -0.001740753508 0.09348512  0.00213651  0.0440982 0.0000
  3   -682.1328597946  -0.019241097926 0.03138250  0.00070563  0.0365608 0.0000
  4   -682.1367382365  -0.003878441930 0.01108094  0.00025785  0.0103195 0.0000
                      *** Initiating the SOSCF procedure ***
                           *** Shutting down DIIS ***
                      *** Re-Reading the Fockian *** 
                      *** Removing any level shift *** 
ITER      Energy       Delta-E        Grad      Rot      Max-DP    RMS-DP
  5   -682.13716235  -0.0004241105  0.001264  0.001264  0.002102  0.000080
  6   -682.13719925  -0.0000369078  0.000470  0.000893  0.001193  0.000048
  7   -682.13720189  -0.0000026388  0.000167  0.000143  0.000629  0.000017
                 **** Energy Check signals convergence ****
              ***Rediagonalizing the Fockian in SOSCF/NRSCF***

               *****************************************************
               *                     SUCCESS                       *
               *           SCF CONVERGED AFTER   8 CYCLES          *
               *****************************************************


----------------
TOTAL SCF ENERGY
----------------

Total Energy       :         -682.13720237 Eh          -18561.89695 eV

Components:
Nuclear Repulsion  :           62.04591599 Eh            1688.35521 eV
Electronic Energy  :         -744.18311836 Eh          -20250.25215 eV
One Electron Energy:        -1067.15733939 Eh          -29038.82751 eV
Two Electron Energy:          322.97422103 Eh            8788.57536 eV

Virial components:
Potential Energy   :        -1363.47662190 Eh          -37102.08512 eV
Kinetic Energy     :          681.33941953 Eh           18540.18817 eV
Virial Ratio       :            2.00117090


DFT components:
N(Alpha)           :       15.000004849295 electrons
N(Beta)            :       15.000004849295 electrons
N(Total)           :       30.000009698589 electrons
E(X)               :      -13.109864488558 Eh       
E(C)               :       -0.655115986381 Eh       
E(XC)              :      -13.764980474939 Eh       
DFET-embed. en.    :        0.000000000000 Eh       

---------------
SCF CONVERGENCE
---------------

  Last Energy change         ...   -4.7620e-07  Tolerance :   1.0000e-06
  Last MAX-Density change    ...    9.2801e-05  Tolerance :   1.0000e-05
  Last RMS-Density change    ...    2.6618e-06  Tolerance :   1.0000e-06
  Last Orbital Gradient      ...    2.5416e-05  Tolerance :   5.0000e-05
  Last Orbital Rotation      ...    2.0647e-05  Tolerance :   5.0000e-05

             **** THE GBW FILE WAS UPDATED (178_p.gbw) ****
             **** DENSITY FILE WAS UPDATED (178_p.scfp) ****
             **** ENERGY FILE WAS UPDATED (178_p.en.tmp) ****
             **** THE GBW FILE WAS UPDATED (178_p.gbw) ****
             **** DENSITY FILE WAS UPDATED (178_p.scfp) ****
----------------
ORBITAL ENERGIES
----------------

  NO   OCC          E(Eh)            E(eV) 
   0   2.0000     -78.942196     -2148.1264 
   1   2.0000     -78.942182     -2148.1260 
   2   2.0000      -7.179541      -195.3652 
   3   2.0000      -7.178983      -195.3501 
   4   2.0000      -5.168695      -140.6473 
   5   2.0000      -5.168695      -140.6473 
   6   2.0000      -5.168498      -140.6420 
   7   2.0000      -5.168498      -140.6420 
   8   2.0000      -5.167947      -140.6270 
   9   2.0000      -5.165936      -140.5723 
  10   2.0000      -0.819848       -22.3092 
  11   2.0000      -0.562897       -15.3172 
  12   2.0000      -0.370379       -10.0785 
  13   2.0000      -0.339830        -9.2472 
  14   2.0000      -0.339830        -9.2472 
  15   0.0000      -0.029203        -0.7946 
  16   0.0000      -0.029203        -0.7946 
  17   0.0000       0.068052         1.8518 
  18   0.0000       0.074853         2.0368 
  19   0.0000       0.142628         3.8811 
  20   0.0000       0.142628         3.8811 
  21   0.0000       0.149707         4.0737 
  22   0.0000       0.173449         4.7198 
  23   0.0000       0.185807         5.0561 
  24   0.0000       0.185807         5.0561 
  25   0.0000       0.207063         5.6345 
  26   0.0000       0.207063         5.6345 
  27   0.0000       0.236145         6.4258 
  28   0.0000       0.236145         6.4258 
  29   0.0000       0.272207         7.4071 
  30   0.0000       0.308562         8.3964 
  31   0.0000       0.308562         8.3964 
  32   0.0000       0.400187        10.8896 
  33   0.0000       0.456197        12.4138 
  34   0.0000       0.456197        12.4138 
  35   0.0000       0.461306        12.5528 
  36   0.0000       0.468606        12.7514 
  37   0.0000       0.468606        12.7514 
  38   0.0000       0.526314        14.3217 
  39   0.0000       0.526314        14.3217 
  40   0.0000       0.558265        15.1912 
  41   0.0000       0.579506        15.7692 
  42   0.0000       0.579506        15.7692 
  43   0.0000       0.702717        19.1219 
  44   0.0000       0.702717        19.1219 
  45   0.0000       0.713995        19.4288 
  46   0.0000       0.838694        22.8220 
  47   0.0000       1.006768        27.3956 
  48   0.0000       1.318761        35.8853 
  49   0.0000       1.340236        36.4697 
  50   0.0000       1.340236        36.4697 
  51   0.0000       1.371208        37.3125 
  52   0.0000       1.371208        37.3125 
  53   0.0000       1.425460        38.7887 
  54   0.0000       1.425460        38.7887 
  55   0.0000       1.467491        39.9325 
  56   0.0000       1.467492        39.9325 
  57   0.0000       1.483005        40.3546 
  58   0.0000       1.483005        40.3546 
  59   0.0000       1.503891        40.9229 
  60   0.0000       1.503891        40.9230 
  61   0.0000       1.551452        42.2172 
  62   0.0000       1.551452        42.2172 
  63   0.0000       1.588802        43.2335 
  64   0.0000       1.610166        43.8148 
  65   0.0000       1.610166        43.8148 
  66   0.0000       1.660567        45.1863 
  67   0.0000       1.707455        46.4622 
  68   0.0000       1.707455        46.4622 
  69   0.0000       1.798612        48.9427 
  70   0.0000       1.798612        48.9427 
  71   0.0000       1.826118        49.6912 
  72   0.0000       1.826119        49.6912 
  73   0.0000       1.914972        52.1090 
  74   0.0000       2.337503        63.6067 
  75   0.0000       2.337503        63.6067 
  76   0.0000       2.417315        65.7785 
  77   0.0000       2.519572        68.5610 
  78   0.0000       5.924502       161.2139 
  79   0.0000       5.989187       162.9741 
  80   0.0000       5.989193       162.9742 
  81   0.0000       5.993129       163.0813 
  82   0.0000       5.993129       163.0813 
  83   0.0000       6.020006       163.8127 
  84   0.0000       6.020013       163.8129 
  85   0.0000       6.081767       165.4933 
  86   0.0000       6.081767       165.4933 
  87   0.0000       6.421820       174.7466 
  88   0.0000       7.573381       206.0822 
  89   0.0000       7.573381       206.0822 
  90   0.0000       7.761080       211.1897 
  91   0.0000       7.761080       211.1897 
  92   0.0000       7.845738       213.4934 
  93   0.0000       8.059979       219.3232 
  94   0.0000      13.583440       369.6242 
  95   0.0000      15.023283       408.8043 

                    ********************************
                    * MULLIKEN POPULATION ANALYSIS *
                    ********************************

-----------------------
MULLIKEN ATOMIC CHARGES
-----------------------
   0 P :   -0.000001
   1 P :    0.000001
Sum of atomic charges:   -0.0000000

--------------------------------
MULLIKEN REDUCED ORBITAL CHARGES
--------------------------------
  0 P s       :     5.889575  s :     5.889575
      pz      :     3.084414  p :     8.986343
      px      :     2.950965
      py      :     2.950965
      dz2     :     0.024052  d :     0.115560
      dxz     :     0.045754
      dyz     :     0.045754
      dx2y2   :     0.000000
      dxy     :     0.000000
      f0      :     0.001960  f :     0.008523
      f+1     :     0.003281
      f-1     :     0.003281
      f+2     :     0.000000
      f-2     :    -0.000000
      f+3     :     0.000000
      f-3     :     0.000000
  1 P s       :     5.889572  s :     5.889572
      pz      :     3.084415  p :     8.986345
      px      :     2.950965
      py      :     2.950965
      dz2     :     0.024052  d :     0.115560
      dxz     :     0.045754
      dyz     :     0.045754
      dx2y2   :     0.000000
      dxy     :     0.000000
      f0      :     0.001960  f :     0.008523
      f+1     :     0.003281
      f-1     :     0.003281
      f+2     :     0.000000
      f-2     :     0.000000
      f+3     :     0.000000
      f-3     :     0.000000


                     *******************************
                     * LOEWDIN POPULATION ANALYSIS *
                     *******************************

----------------------
LOEWDIN ATOMIC CHARGES
----------------------
   0 P :   -0.000000
   1 P :    0.000000

-------------------------------
LOEWDIN REDUCED ORBITAL CHARGES
-------------------------------
  0 P s       :     5.480473  s :     5.480473
      pz      :     3.309876  p :     9.129356
      px      :     2.909740
      py      :     2.909740
      dz2     :     0.196741  d :     0.363225
      dxz     :     0.083242
      dyz     :     0.083242
      dx2y2   :     0.000000
      dxy     :     0.000000
      f0      :     0.012910  f :     0.026947
      f+1     :     0.007018
      f-1     :     0.007018
      f+2     :     0.000000
      f-2     :     0.000000
      f+3     :     0.000000
      f-3     :     0.000000
  1 P s       :     5.480473  s :     5.480473
      pz      :     3.309876  p :     9.129356
      px      :     2.909740
      py      :     2.909740
      dz2     :     0.196741  d :     0.363225
      dxz     :     0.083242
      dyz     :     0.083242
      dx2y2   :     0.000000
      dxy     :     0.000000
      f0      :     0.012910  f :     0.026947
      f+1     :     0.007018
      f-1     :     0.007018
      f+2     :     0.000000
      f-2     :     0.000000
      f+3     :     0.000000
      f-3     :     0.000000


                      *****************************
                      * MAYER POPULATION ANALYSIS *
                      *****************************

  NA   - Mulliken gross atomic population
  ZA   - Total nuclear charge
  QA   - Mulliken gross atomic charge
  VA   - Mayer's total valence
  BVA  - Mayer's bonded valence
  FA   - Mayer's free valence

  ATOM       NA         ZA         QA         VA         BVA        FA
  0 P     15.0000    15.0000    -0.0000     2.8441     2.8441    -0.0000
  1 P     15.0000    15.0000     0.0000     2.8441     2.8441    -0.0000

  Mayer bond orders larger than 0.100000
B(  0-P ,  1-P ) :   2.8441 

-------
TIMINGS
-------

Total SCF time: 0 days 0 hours 0 min 1 sec 

Total time                  ....       1.285 sec
Sum of individual times     ....       1.189 sec  ( 92.5%)

Fock matrix formation       ....       0.894 sec  ( 69.6%)
  XC integration            ....       0.075 sec  (  8.4% of F)
    Basis function eval.    ....       0.010 sec  ( 12.7% of XC)
    Density eval.           ....       0.006 sec  (  7.4% of XC)
    XC-Functional eval.     ....       0.004 sec  (  5.2% of XC)
    XC-Potential eval.      ....       0.010 sec  ( 13.2% of XC)
Diagonalization             ....       0.007 sec  (  0.5%)
Density matrix formation    ....       0.003 sec  (  0.2%)
Population analysis         ....       0.002 sec  (  0.2%)
Initial guess               ....       0.118 sec  (  9.2%)
Orbital Transformation      ....       0.000 sec  (  0.0%)
Orbital Orthonormalization  ....       0.000 sec  (  0.0%)
DIIS solution               ....       0.003 sec  (  0.2%)
SOSCF solution              ....       0.002 sec  (  0.2%)
Grid generation             ....       0.160 sec  ( 12.4%)


           ************************************************************
           *        Program running with 24 parallel MPI-processes    *
           *              working on a common directory               *
           ************************************************************

------------------------------------------------------------------------------
                                ORCA  MP2 
------------------------------------------------------------------------------

Freezing NCore=20 chemical core electrons

-------------
RI-MP2 ENERGY
-------------
Dimension of the basis                    ...   96
Memory devoted to MP2                     ... 5000 MB   
Data format for buffers                   ... DOUBLE
Compression type for matrix containers    ... UNCOMPRESSED
Scaling for aa/bb pairs                   ...   4.000e-01
Scaling for ab pairs                      ...   4.700e-01
Overall scaling of the MP2 energy         ...   1.000e+00
Calculating two index integrals           ... done (    0.001 sec)
Cholesky decomposition of V**-1           ... done (    0.009 sec)

-----------------
RI-TRANSFORMATION (AUX index driven)
-----------------

Dimension of the orbital-basis         ... 96
Dimension of the aux-basis             ... 278
Transformation of internal/external MOs...   10-  14 to   15-  95
Number Format for Storage              ... Double (8 Byte)
Integral mode                          ... Direct

First Phase: integral generation and transformation of MO indices
  Aux angular momentum 0               ... done (    0.000 sec)
  Aux angular momentum 1               ... done (    0.001 sec)
  Aux angular momentum 2               ... done (    0.001 sec)
  Aux angular momentum 3               ... done (    0.001 sec)
  Aux angular momentum 4               ... done (    0.002 sec)
Closing buffer VIA ( 0.00 GB; CompressionRatio= 1.00)
  Phase 1 completed in     0.131 sec
Second Phase: sorting and transformation of aux index

IA-Transformation
Memory available                       ... 4999 MB 
Max. # MO pairs treated in a batch     ... 1    
# of internal orbitals                 ... 5
# batches for internal orbitals        ... 1
Closing buffer IAV ( 0.00 GB; CompressionRatio= 1.00)
(ia|v) transformation done in     0.002 sec

  Phase 2 completed in     0.005 sec
RI-Integral transformation completed in     0.137 sec
Opening buffers                              ... done

Starting loop over batches of integrals:

Operator 0  - window                       ... ( 10- 14)x( 15- 95)
Operator 0  - Memory available             ...  5000 MB
Operator 0  - Memory needed per MO         ...   0.2 MB
Operator 0  - Number of orbitals per batch ... 1
Operator 0  - Number of batches            ... 1

OPERATOR  0   PASS   0:  MOs    10 ...   10 +   11 ...   11 +   12 ...   12 +   13 ...   13
                            +   14 ...   14
  Reading integrals       ... ok
Time spent in pair loops =     0.001 sec
Deleting buffer (Ka|jb)[aa] ...done

-----------------------------------------------
 RI-MP2 CORRELATION ENERGY:     -0.149554214 Eh
-----------------------------------------------


-------
TIMINGS
-------

Total time                :    0.167 sec
Integral trafo            :    0.153 sec ( 92.0%)
I/O of integrals          :    0.000 sec (  0.1%)
K(i,j) Operators          :    0.000 sec (  0.1%)
T(i,j) pair energies      :    0.000 sec (  0.0%)
V-calculation             :    0.001 sec (  0.9%)
V**(-1/2)                 :    0.009 sec (  5.4%)
Gamma(ia|P)               :    0.000 sec (  0.0%)
Gamma-Trafo               :    0.000 sec (  0.0%)
D(virtual)                :    0.000 sec (  0.0%)
D(internal)               :    0.000 sec (  0.0%)
W(virtual)                :    0.000 sec (  0.0%)
W(internal)               :    0.000 sec (  0.0%)
L(virtual)                :    0.000 sec (  0.0%)
L(internal)               :    0.000 sec (  0.0%)
G(D)                      :    0.000 sec (  0.0%)
G(Z)                      :    0.000 sec (  0.0%)
Z-Vector Solution         :    0.000 sec (  0.0%)
Z-Vector Solution         :    0.000 sec (  0.0%)
3-Index Derivative 
+ Separable RIJ part      :    0.000 sec (  0.0%)
2-Index Derivative 
+ Separable RIJ part      :    0.000 sec (  0.0%)
Separable Gradient (X)    :    0.000 sec (  0.0%)


---------------------------------------
MP2 TOTAL ENERGY:     -682.286756584 Eh
---------------------------------------


-------------------------------------------------------------------------------
                          DFT DISPERSION CORRECTION                            
                                                                               
                              DFTD3 V3.1  Rev 1                                
                          USING Becke-Johnson damping                          
-------------------------------------------------------------------------------
The DSD-BLYP/2013 functional is recognized
Active option DFTDOPT                   ...         4   

molecular C6(AA) [au] = 722.933836 


            DFT-D V3
 parameters
 s6 scaling factor         :     0.5700 
 a1 scaling factor         :     0.0000 
 s8 scaling factor         :     0.0000 
 a2 scaling factor         :     5.4000 
 ad hoc parameters k1-k3   :    16.0000     1.3333    -4.0000 

 Edisp/kcal,au: -2.388145720017  -0.003805752047 
 E6   /kcal   :  -2.388145720 
 E8   /kcal   :  -0.000000000 
 % E8         :   0.000000000 

-------------------------   ----------------
Dispersion correction           -0.003805752
-------------------------   ----------------


-------------------------   --------------------
FINAL SINGLE POINT ENERGY      -682.290562336322
-------------------------   --------------------


                            ***************************************
                            *     ORCA property calculations      *
                            ***************************************


  WARNING: The energy has been calculated at the MP2 level but the densities
           used in the property calculations are still SCF densities
           MP2 response densities have not been calculated 
           use %mp2 Density relaxed end
           or  %mp2 Density unrelaxed end

                                    ---------------------
                                    Active property flags
                                    ---------------------
   (+) Dipole Moment


------------------------------------------------------------------------------
                       ORCA ELECTRIC PROPERTIES CALCULATION
------------------------------------------------------------------------------

Dipole Moment Calculation                       ... on
Quadrupole Moment Calculation                   ... off
Polarizability Calculation                      ... off
GBWName                                         ... 178_p.gbw
Electron density file                           ... 178_p.scfp
The origin for moment calculation is the CENTER OF MASS  = ( 0.000000,  0.000000  0.000000)

-------------
DIPOLE MOMENT
-------------
                                X             Y             Z
Electronic contribution:     -0.00000      -0.00000      -0.00000
Nuclear contribution   :      0.00000       0.00000       0.00000
                        -----------------------------------------
Total Dipole Moment    :     -0.00000      -0.00000      -0.00000
                        -----------------------------------------
Magnitude (a.u.)       :      0.00000
Magnitude (Debye)      :      0.00000



--------------------
Rotational spectrum 
--------------------
 
Rotational constants in cm-1:     0.000000     0.295589     0.295589 
Rotational constants in MHz :     0.000000  8861.544214  8861.544214 

 Dipole components along the rotational axes: 
x,y,z [a.u.] :    -0.000000    -0.000000    -0.000000 
x,y,z [Debye]:    -0.000000    -0.000000    -0.000000 

 

Timings for individual modules:

Sum of individual times         ...        3.047 sec (=   0.051 min)
GTO integral calculation        ...        0.655 sec (=   0.011 min)  21.5 %
SCF iterations                  ...        1.689 sec (=   0.028 min)  55.4 %
MP2 module                      ...        0.703 sec (=   0.012 min)  23.1 %
                             ****ORCA TERMINATED NORMALLY****
TOTAL RUN TIME: 0 days 0 hours 0 minutes 3 seconds 639 msec
