
                                 *****************
                                 * O   R   C   A *
                                 *****************

           --- An Ab Initio, DFT and Semiempirical electronic structure package ---

                  #######################################################
                  #                        -***-                        #
                  #          Department of theory and spectroscopy      #
                  #               Directorship: Frank Neese             #
                  #        Max Planck Institute fuer Kohlenforschung    #
                  #                Kaiser Wilhelm Platz 1               #
                  #                 D-45470 Muelheim/Ruhr               #
                  #                      Germany                        #
                  #                                                     #
                  #                  All rights reserved                #
                  #                        -***-                        #
                  #######################################################


                         Program Version 4.2.0 -  RELEASE  -


 With contributions from (in alphabetic order):
   Daniel Aravena         : Magnetic Suceptibility
   Michael Atanasov       : Ab Initio Ligand Field Theory (pilot matlab implementation)
   Alexander A. Auer      : GIAO ZORA, VPT2
   Ute Becker             : Parallelization
   Giovanni Bistoni       : ED, misc. LED, open-shell LED, HFLED
   Martin Brehm           : Molecular dynamics
   Dmytro Bykov           : SCF Hessian
   Vijay G. Chilkuri      : MRCI spin determinant printing, contributions to CSF-ICE
   Dipayan Datta          : RHF DLPNO-CCSD density
   Achintya Kumar Dutta   : EOM-CC, STEOM-CC
   Dmitry Ganyushin       : Spin-Orbit,Spin-Spin,Magnetic field MRCI
   Miquel Garcia          : C-PCM Hessian, Gaussian charge scheme
   Yang Guo               : DLPNO-NEVPT2, CIM, IAO-localization
   Andreas Hansen         : Spin unrestricted coupled pair/coupled cluster methods
   Benjamin Helmich-Paris : CASSCF linear response (MC-RPA)
   Lee Huntington         : MR-EOM, pCC
   Robert Izsak           : Overlap fitted RIJCOSX, COSX-SCS-MP3, EOM
   Christian Kollmar      : KDIIS, OOCD, Brueckner-CCSD(T), CCSD density
   Simone Kossmann        : Meta GGA functionals, TD-DFT gradient, OOMP2, MP2 Hessian
   Martin Krupicka        : AUTO-CI
   Lucas Lang             : DCDCAS
   Dagmar Lenk            : GEPOL surface, SMD
   Dimitrios Liakos       : Extrapolation schemes; Compound Job, initial MDCI parallelization
   Dimitrios Manganas     : Further ROCIS development; embedding schemes
   Dimitrios Pantazis     : SARC Basis sets
   Taras Petrenko         : DFT Hessian,TD-DFT gradient, ASA, ECA, R-Raman, ABS, FL, XAS/XES, NRVS
   Peter Pinski           : DLPNO-MP2, DLPNO-MP2 Gradient
   Christoph Reimann      : Effective Core Potentials
   Marius Retegan         : Local ZFS, SOC
   Christoph Riplinger    : Optimizer, TS searches, QM/MM, DLPNO-CCSD(T), (RO)-DLPNO pert. Triples
   Tobias Risthaus        : Range-separated hybrids, TD-DFT gradient, RPA, STAB
   Michael Roemelt        : Original ROCIS implementation
   Masaaki Saitow         : Open-shell DLPNO-CCSD energy and density
   Barbara Sandhoefer     : DKH picture change effects
   Avijit Sen             : IP-ROCIS
   Kantharuban Sivalingam : CASSCF convergence, NEVPT2, FIC-MRCI
   Bernardo de Souza      : ESD, SOC TD-DFT
   Georgi Stoychev        : AutoAux, RI-MP2 NMR
   Willem Van den Heuvel  : Paramagnetic NMR
   Boris Wezisla          : Elementary symmetry handling
   Frank Wennmohs         : Technical directorship


 We gratefully acknowledge several colleagues who have allowed us to
 interface, adapt or use parts of their codes:
   Stefan Grimme, W. Hujo, H. Kruse,             : VdW corrections, initial TS optimization,
                  C. Bannwarth                     DFT functionals, gCP, sTDA/sTD-DF
   Ed Valeev, F. Pavosevic, A. Kumar             : LibInt (2-el integral package), F12 methods
   Garnet Chan, S. Sharma, J. Yang, R. Olivares  : DMRG
   Ulf Ekstrom                                   : XCFun DFT Library
   Mihaly Kallay                                 : mrcc  (arbitrary order and MRCC methods)
   Andreas Klamt, Michael Diedenhofen            : otool_cosmo (COSMO solvation model)
   Jiri Pittner, Ondrej Demel                    : Mk-CCSD
   Frank Weinhold                                : gennbo (NPA and NBO analysis)
   Christopher J. Cramer and Donald G. Truhlar   : smd solvation model
   Lars Goerigk                                  : TD-DFT with DH, B97 family of functionals
   V. Asgeirsson, H. Jonsson                     : NEB implementation
   FAccTs GmbH                                   : IRC, NEB, NEB-TS, Multilevel, MM, QM/MM, CI optimization
   S Lehtola, MJT Oliveira, MAL Marques          : LibXC Library


 Your calculation uses the libint2 library for the computation of 2-el integrals
 For citations please refer to: http://libint.valeyev.net

 Your ORCA version has been built with support for libXC version: 4.2.3
 For citations please refer to: https://tddft.org/programs/libxc/

 This ORCA versions uses:
   CBLAS   interface :  Fast vector & matrix operations
   LAPACKE interface :  Fast linear algebra routines
   SCALAPACK package :  Parallel linear algebra routines


Your calculation utilizes the DFT-NL dispersion correction.
Cite in your paper:
Vydrov, O. A.; Van Voorhis, T. J. Chem. Phys. 2010, 133, 244103
Hujo, W.; Grimme, S. J. Chem. Theory Comput. 2011, 7, 3866 
   

----- Orbital basis set information -----
Your calculation utilizes the basis: def2-TZVPPD
   F. Weigend and R. Ahlrichs, Phys. Chem. Chem. Phys. 7, 3297 (2005).
   D. Rappoport and F. Furche, J. Chem. Phys. 133 134105 (2010).

----- AuxJK basis set information -----
Your calculation utilizes the auxiliary basis: def2/JK
   H-Ba, Hf-Rn: F. Weigend, J. Comput. Chem. 29, 167 (2008).

================================================================================
                                        WARNINGS
                       Please study these warnings very carefully!
================================================================================


INFO   : the flag for use of LIBINT has been found!

================================================================================
                                       INPUT FILE
================================================================================
NAME = 048.in
|  1> #
|  2> # 048 wB97M-V/Def2-TZVPPD
|  3> #
|  4> ! wb97m-v def2-tzvppd def2/jk grid4 nofinalgrid
|  5> 
|  6> *xyz 0 1
|  7> O          0.75742       -0.00510        0.75514
|  8> H         -1.01794        1.02757        1.02184
|  9> H         -0.96093       -0.60735        1.74144
| 10> C         -0.64191        0.00049        0.87802
| 11> H          0.38038        0.00572       -2.17342
| 12> H          0.12624       -0.00672       -2.88156
| 13> Al         2.47079       -0.00043        0.68709
| 14> H         -1.11404       -0.41418       -0.02857
| 15> *
| 16> 
| 17> %maxcore 5000
| 18> 
| 19> %pal
| 20> nprocs = 24
| 21> end
| 22> 
| 23> 
| 24>                          ****END OF INPUT****
================================================================================

                       ****************************
                       * Single Point Calculation *
                       ****************************

---------------------------------
CARTESIAN COORDINATES (ANGSTROEM)
---------------------------------
  O      0.757420   -0.005100    0.755140
  H     -1.017940    1.027570    1.021840
  H     -0.960930   -0.607350    1.741440
  C     -0.641910    0.000490    0.878020
  H      0.380380    0.005720   -2.173420
  H      0.126240   -0.006720   -2.881560
  Al     2.470790   -0.000430    0.687090
  H     -1.114040   -0.414180   -0.028570

----------------------------
CARTESIAN COORDINATES (A.U.)
----------------------------
  NO LB      ZA    FRAG     MASS         X           Y           Z
   0 O     8.0000    0    15.999    1.431316   -0.009638    1.427008
   1 H     1.0000    0     1.008   -1.923628    1.941826    1.930998
   2 H     1.0000    0     1.008   -1.815895   -1.147725    3.290845
   3 C     6.0000    0    12.011   -1.213034    0.000926    1.659217
   4 H     1.0000    0     1.008    0.718814    0.010809   -4.107169
   5 H     1.0000    0     1.008    0.238559   -0.012699   -5.445359
   6 Al   13.0000    0    26.982    4.669116   -0.000813    1.298412
   7 H     1.0000    0     1.008   -2.105231   -0.782687   -0.053989

--------------------------------
INTERNAL COORDINATES (ANGSTROEM)
--------------------------------
 O      0   0   0     0.000000000000     0.00000000     0.00000000
 H      1   0   0     2.071096170751     0.00000000     0.00000000
 H      2   1   0     1.787187093312    64.42933202     0.00000000
 C      3   2   1     1.103058168185    35.89967210   323.20979122
 H      1   2   3     2.952751243772    90.94155429   117.31376937
 H      5   1   2     0.752465383124   167.54060729   324.73475262
 Al     1   2   3     1.714727199382   149.34824790   218.89732579
 H      4   3   2     1.103069976883   108.20309272   243.05990816

---------------------------
INTERNAL COORDINATES (A.U.)
---------------------------
 O      0   0   0     0.000000000000     0.00000000     0.00000000
 H      1   0   0     3.913804559733     0.00000000     0.00000000
 H      2   1   0     3.377294156438    64.42933202     0.00000000
 C      3   2   1     2.084477847655    35.89967210   323.20979122
 H      1   2   3     5.579891192325    90.94155429   117.31376937
 H      5   1   2     1.421953499361   167.54060729   324.73475262
 Al     1   2   3     3.240364801218   149.34824790   218.89732579
 H      4   3   2     2.084500162859   108.20309272   243.05990816

---------------------
BASIS SET INFORMATION
---------------------
There are 4 groups of distinct atoms

 Group   1 Type O   : 12s7p3d1f contracted to 6s4p3d1f pattern {621111/4111/111/1}
 Group   2 Type H   : 5s3p1d contracted to 3s3p1d pattern {311/111/1}
 Group   3 Type C   : 12s6p3d1f contracted to 6s3p3d1f pattern {621111/411/111/1}
 Group   4 Type Al  : 15s9p4d1f contracted to 6s5p4d1f pattern {732111/51111/1111/1}

Atom   0O    basis set group =>   1
Atom   1H    basis set group =>   2
Atom   2H    basis set group =>   2
Atom   3C    basis set group =>   3
Atom   4H    basis set group =>   2
Atom   5H    basis set group =>   2
Atom   6Al   basis set group =>   4
Atom   7H    basis set group =>   2
----------------------------------
AUXILIARY/JK BASIS SET INFORMATION
----------------------------------
There are 4 groups of distinct atoms

 Group   1 Type O   : 14s10p6d2f1g contracted to 10s8p4d2f1g pattern {5111111111/31111111/3111/11/1}
 Group   2 Type H   : 4s2p2d contracted to 2s2p2d pattern {31/11/11}
 Group   3 Type C   : 14s10p6d2f1g contracted to 10s8p5d1f1g pattern {5111111111/31111111/21111/2/1}
 Group   4 Type Al  : 16s12p10d4f1g contracted to 13s11p9d4f1g pattern {4111111111111/21111111111/211111111/1111/1}

Atom   0O    basis set group =>   1
Atom   1H    basis set group =>   2
Atom   2H    basis set group =>   2
Atom   3C    basis set group =>   3
Atom   4H    basis set group =>   2
Atom   5H    basis set group =>   2
Atom   6Al   basis set group =>   4
Atom   7H    basis set group =>   2


           ************************************************************
           *        Program running with 24 parallel MPI-processes    *
           *              working on a common directory               *
           ************************************************************
------------------------------------------------------------------------------
                           ORCA GTO INTEGRAL CALCULATION
------------------------------------------------------------------------------

                         BASIS SET STATISTICS AND STARTUP INFO

 # of primitive gaussian shells          ...  119
 # of primitive gaussian functions       ...  271
 # of contracted shells                  ...   78
 # of contracted basis functions         ...  210
 Highest angular momentum                ...    3
 Maximum contraction depth               ...    7
 Integral package used                   ... LIBINT
 Integral threshhold            Thresh   ...  1.000e-10
 Primitive cut-off              TCut     ...  1.000e-11


------------------------------ INTEGRAL EVALUATION ----------------------------


 * One electron integrals 
 Pre-screening matrix                    ... done
 Shell pair data                         ... done (   0.001 sec)



           ************************************************************
           *        Program running with 24 parallel MPI-processes    *
           *              working on a common directory               *
           ************************************************************
-------------------------------------------------------------------------------
                                 ORCA SCF
-------------------------------------------------------------------------------

------------
SCF SETTINGS
------------
Hamiltonian:
 Density Functional     Method          .... DFT(GTOs)
 Exchange Functional    Exchange        .... WB97M-V
 Correlation Functional Correlation     .... WB97M-V
 Gradients option       PostSCFGGA      .... off
 Hybrid DFT is turned on
   Fraction HF Exchange ScalHFX         ....  0.150000
   Scaling of DF-GGA-X  ScalDFX         ....  0.000000
   Scaling of DF-GGA-C  ScalDFC         ....  1.000000
   Scaling of DF-LDA-C  ScalLDAC        ....  1.000000
   Perturbative correction              ....  0.000000
   Density functional embedding theory  .... OFF
 Long-range corrected/Screened/Range-Separated Hybrid DFT is turned on
   Amount of maximum screened exact exchange              ....  0.850000
   Range separation parameter mu (erf(mu*r12)/r12)        ....  0.300000
   NL short-range parameter             ....  6.000000
   NL long-range parameter              ....  0.010000


General Settings:
 Integral files         IntName         .... 048
 Hartree-Fock type      HFTyp           .... RHF
 Total Charge           Charge          ....    0
 Multiplicity           Mult            ....    1
 Number of Electrons    NEL             ....   32
 Basis Dimension        Dim             ....  210
 Nuclear Repulsion      ENuc            ....     94.2408931544 Eh

Convergence Acceleration:
 DIIS                   CNVDIIS         .... on
   Start iteration      DIISMaxIt       ....    12
   Startup error        DIISStart       ....  0.200000
   # of expansion vecs  DIISMaxEq       ....     5
   Bias factor          DIISBfac        ....   1.050
   Max. coefficient     DIISMaxC        ....  10.000
 Newton-Raphson         CNVNR           .... off
 SOSCF                  CNVSOSCF        .... on
   Start iteration      SOSCFMaxIt      ....   150
   Startup grad/error   SOSCFStart      ....  0.003300
 Level Shifting         CNVShift        .... on
   Level shift para.    LevelShift      ....    0.2500
   Turn off err/grad.   ShiftErr        ....    0.0010
 Zerner damping         CNVZerner       .... off
 Static damping         CNVDamp         .... on
   Fraction old density DampFac         ....    0.7000
   Max. Damping (<1)    DampMax         ....    0.9800
   Min. Damping (>=0)   DampMin         ....    0.0000
   Turn off err/grad.   DampErr         ....    0.1000
 Fernandez-Rico         CNVRico         .... off

SCF Procedure:
 Maximum # iterations   MaxIter         ....   125
 SCF integral mode      SCFMode         .... Direct
   Integral package                     .... LIBINT
 Reset frequency        DirectResetFreq ....    20
 Integral Threshold     Thresh          ....  1.000e-10 Eh
 Primitive CutOff       TCut            ....  1.000e-11 Eh

Convergence Tolerance:
 Convergence Check Mode ConvCheckMode   .... Total+1el-Energy
 Convergence forced     ConvForced      .... 0
 Energy Change          TolE            ....  1.000e-06 Eh
 1-El. energy change                    ....  1.000e-03 Eh
 Orbital Gradient       TolG            ....  5.000e-05
 Orbital Rotation angle TolX            ....  5.000e-05
 DIIS Error             TolErr          ....  1.000e-06


Diagonalization of the overlap matrix:
Smallest eigenvalue                        ... 3.543e-05
Time for diagonalization                   ...    0.010 sec
Threshold for overlap eigenvalues          ... 1.000e-08
Number of eigenvalues below threshold      ... 0
Time for construction of square roots      ...    0.006 sec
Total time needed                          ...    0.016 sec

-------------------
DFT GRID GENERATION
-------------------

General Integration Accuracy     IntAcc      ...  4.670
Radial Grid Type                 RadialGrid  ... Gauss-Chebyshev
Angular Grid (max. acc.)         AngularGrid ... Lebedev-302
Angular grid pruning method      GridPruning ... 3 (G Style)
Weight generation scheme         WeightScheme... Becke
Basis function cutoff            BFCut       ...    1.0000e-10
Integration weight cutoff        WCut        ...    1.0000e-14
Grids for H and He will be reduced by one unit

# of grid points (after initial pruning)     ...  36240 (   0.0 sec)
# of grid points (after weights+screening)   ...  34835 (   0.0 sec)
nearest neighbour list constructed           ...    0.0 sec
Grid point re-assignment to atoms done       ...    0.0 sec
Grid point division into batches done        ...    0.1 sec
Reduced shell lists constructed in    0.2 sec

Total number of grid points                  ...    34835
Total number of batches                      ...      548
Average number of points per batch           ...       63
Average number of grid points per atom       ...     4354
Average number of shells per batch           ...    60.83 (77.99%)
Average number of basis functions per batch  ...   170.08 (80.99%)
Average number of large shells per batch     ...    52.62 (86.51%)
Average number of large basis fcns per batch ...   147.04 (86.45%)
Maximum spatial batch extension              ...   2.42,  7.36,  4.98 au
Average spatial batch extension              ...   0.08,  0.10,  0.10 au

Time for grid setup =    0.193 sec

------------------------------
INITIAL GUESS: MODEL POTENTIAL
------------------------------
Loading Hartree-Fock densities                     ... done
Calculating cut-offs                               ... done
Setting up the integral package                    ... done
Initializing the effective Hamiltonian             ... done
Starting the Coulomb interaction                   ... done (   0.0 sec)
Reading the grid                                   ... done
Mapping shells                                     ... done
Starting the XC term evaluation                    ... done (   0.0 sec)
  promolecular density results
     # of electrons  =     31.997452543
     EX              =    -32.681464995
     EC              =     -1.050920973
     EX+EC           =    -33.732385968
Transforming the Hamiltonian                       ... done (   0.0 sec)
Diagonalizing the Hamiltonian                      ... done (   0.0 sec)
Back transforming the eigenvectors                 ... done (   0.0 sec)
Now organizing SCF variables                       ... done
                      ------------------
                      INITIAL GUESS DONE (   0.3 sec)
                      ------------------
--------------
SCF ITERATIONS
--------------
ITER       Energy         Delta-E        Max-DP      RMS-DP      [F,P]     Damp
               ***  Starting incremental Fock matrix formation  ***
  0   -358.7287824859   0.000000000000 0.07193889  0.00128098  0.3506638 0.7000
  1   -358.7973975888  -0.068615102938 0.06136881  0.00100548  0.1603423 0.7000
                               ***Turning on DIIS***
  2   -358.8254555117  -0.028057922903 0.16430099  0.00233480  0.0473492 0.0000
  3   -358.8734702900  -0.048014778296 0.03460222  0.00050269  0.0888312 0.0000
  4   -358.8821238756  -0.008653585570 0.04442704  0.00036438  0.0105154 0.0000
                      *** Initiating the SOSCF procedure ***
                           *** Shutting down DIIS ***
                      *** Re-Reading the Fockian *** 
                      *** Removing any level shift *** 
ITER      Energy       Delta-E        Grad      Rot      Max-DP    RMS-DP
  5   -358.88234774  -0.0002238658  0.000741  0.000741  0.026375  0.000206
               *** Restarting incremental Fock matrix formation ***
  6   -358.88237830  -0.0000305561  0.000456  0.001026  0.015207  0.000116
  7   -358.88238610  -0.0000078057  0.000157  0.000667  0.007674  0.000058
  8   -358.88238707  -0.0000009707  0.000071  0.000058  0.001366  0.000011
  9   -358.88238724  -0.0000001639  0.000028  0.000043  0.000623  0.000005
                 **** Energy Check signals convergence ****
              ***Rediagonalizing the Fockian in SOSCF/NRSCF***

               *****************************************************
               *                     SUCCESS                       *
               *           SCF CONVERGED AFTER  10 CYCLES          *
               *****************************************************


Setting up the DFT-NL grid :

General Integration Accuracy     IntAcc      ...  4.340
Radial Grid Type                 RadialGrid  ... Gauss-Chebyshev
Angular Grid (max. acc.)         AngularGrid ... Lebedev-110
Angular grid pruning method      GridPruning ... 3 (G Style)
Weight generation scheme         WeightScheme... Becke
Basis function cutoff            BFCut       ...    1.0000e-10
Integration weight cutoff        WCut        ...    1.0000e-14
Grids for H and He will be reduced by one unit

# of grid points (after initial pruning)     ...   9208 (   0.0 sec)
# of grid points (after weights+screening)   ...   8912 (   0.0 sec)
nearest neighbour list constructed           ...    0.0 sec
Grid point re-assignment to atoms done       ...    0.0 sec
Grid point division into batches done        ...    0.0 sec
Reduced shell lists constructed in    0.0 sec

Total number of grid points                  ...     8912
Total number of batches                      ...      144
Average number of points per batch           ...       61
Average number of grid points per atom       ...     1114
Average number of shells per batch           ...    56.86 (72.89%)
Average number of basis functions per batch  ...   159.14 (75.78%)
Average number of large shells per batch     ...    51.00 (89.70%)
Average number of large basis fcns per batch ...   144.71 (90.93%)
Maximum spatial batch extension              ...   2.90,  5.79,  4.70 au
Average spatial batch extension              ...   0.10,  0.16,  0.14 au

Final grid set up in    0.0 sec

-------------------------------------------------------------------------------
                         DFT-NL dispersion correction                          
-------------------------------------------------------------------------------

SC Energy -358.882387255 
NL    Energy 0.131889170 
SC+NL Energy -358.750498085 
NL done in    0.0 sec
-------------------------------------------------------------------------------

----------------
TOTAL SCF ENERGY
----------------

Total Energy       :         -358.75049809 Eh           -9762.09735 eV

Components:
Nuclear Repulsion  :           94.24089315 Eh            2564.42508 eV
Electronic Energy  :         -452.99139124 Eh          -12326.52242 eV
One Electron Energy:         -682.59336682 Eh          -18574.30981 eV
Two Electron Energy:          229.60197558 Eh            6247.78739 eV

Virial components:
Potential Energy   :         -716.45446207 Eh          -19495.71706 eV
Kinetic Energy     :          357.70396398 Eh            9733.61971 eV
Virial Ratio       :            2.00292570


DFT components:
N(Alpha)           :       15.999979617335 electrons
N(Beta)            :       15.999979617335 electrons
N(Total)           :       31.999959234671 electrons
E(X)               :      -24.171533235647 Eh       
E(C)               :       -1.104076655575 Eh       
NL Energy, E(C,NL) :        0.131889170095 Eh       
E(XC)              :      -25.143720721127 Eh       
DFET-embed. en.    :        0.000000000000 Eh       

---------------
SCF CONVERGENCE
---------------

  Last Energy change         ...   -1.7781e-08  Tolerance :   1.0000e-06
  Last MAX-Density change    ...    2.3729e-04  Tolerance :   1.0000e-05
  Last RMS-Density change    ...    1.9617e-06  Tolerance :   1.0000e-06
  Last Orbital Gradient      ...    2.0006e-05  Tolerance :   5.0000e-05
  Last Orbital Rotation      ...    1.0966e-05  Tolerance :   5.0000e-05

             **** THE GBW FILE WAS UPDATED (048.gbw) ****
             **** DENSITY FILE WAS UPDATED (048.scfp) ****
             **** ENERGY FILE WAS UPDATED (048.en.tmp) ****
             **** THE GBW FILE WAS UPDATED (048.gbw) ****
             **** DENSITY FILE WAS UPDATED (048.scfp) ****
----------------
ORBITAL ENERGIES
----------------

  NO   OCC          E(Eh)            E(eV) 
   0   2.0000     -56.300277     -1532.0084 
   1   2.0000     -19.315883      -525.6119 
   2   2.0000     -10.388857      -282.6952 
   3   2.0000      -4.279944      -116.4632 
   4   2.0000      -2.793959       -76.0275 
   5   2.0000      -2.793949       -76.0272 
   6   2.0000      -2.790537       -75.9344 
   7   2.0000      -1.109075       -30.1795 
   8   2.0000      -0.791543       -21.5390 
   9   2.0000      -0.582440       -15.8490 
  10   2.0000      -0.551475       -15.0064 
  11   2.0000      -0.546358       -14.8672 
  12   2.0000      -0.526720       -14.3328 
  13   2.0000      -0.389387       -10.5958 
  14   2.0000      -0.389061       -10.5869 
  15   2.0000      -0.320783        -8.7290 
  16   0.0000       0.023017         0.6263 
  17   0.0000       0.023059         0.6275 
  18   0.0000       0.039194         1.0665 
  19   0.0000       0.048996         1.3332 
  20   0.0000       0.064678         1.7600 
  21   0.0000       0.089252         2.4287 
  22   0.0000       0.093242         2.5372 
  23   0.0000       0.096002         2.6124 
  24   0.0000       0.098643         2.6842 
  25   0.0000       0.112956         3.0737 
  26   0.0000       0.123812         3.3691 
  27   0.0000       0.125846         3.4245 
  28   0.0000       0.130959         3.5636 
  29   0.0000       0.150843         4.1046 
  30   0.0000       0.157516         4.2862 
  31   0.0000       0.172530         4.6948 
  32   0.0000       0.188572         5.1313 
  33   0.0000       0.199631         5.4322 
  34   0.0000       0.211719         5.7612 
  35   0.0000       0.223375         6.0783 
  36   0.0000       0.235946         6.4204 
  37   0.0000       0.262308         7.1378 
  38   0.0000       0.266481         7.2513 
  39   0.0000       0.272001         7.4015 
  40   0.0000       0.282435         7.6854 
  41   0.0000       0.298160         8.1133 
  42   0.0000       0.306350         8.3362 
  43   0.0000       0.307954         8.3798 
  44   0.0000       0.317400         8.6369 
  45   0.0000       0.326557         8.8861 
  46   0.0000       0.337250         9.1770 
  47   0.0000       0.344232         9.3670 
  48   0.0000       0.347284         9.4501 
  49   0.0000       0.355922         9.6851 
  50   0.0000       0.367574        10.0022 
  51   0.0000       0.373102        10.1526 
  52   0.0000       0.385257        10.4834 
  53   0.0000       0.388457        10.5705 
  54   0.0000       0.396707        10.7949 
  55   0.0000       0.399814        10.8795 
  56   0.0000       0.404769        11.0143 
  57   0.0000       0.418438        11.3863 
  58   0.0000       0.438956        11.9446 
  59   0.0000       0.456417        12.4197 
  60   0.0000       0.469124        12.7655 
  61   0.0000       0.488326        13.2880 
  62   0.0000       0.496433        13.5086 
  63   0.0000       0.514673        14.0050 
  64   0.0000       0.530989        14.4489 
  65   0.0000       0.592739        16.1292 
  66   0.0000       0.617621        16.8063 
  67   0.0000       0.642634        17.4870 
  68   0.0000       0.660560        17.9747 
  69   0.0000       0.669684        18.2230 
  70   0.0000       0.675326        18.3766 
  71   0.0000       0.685247        18.6465 
  72   0.0000       0.705876        19.2079 
  73   0.0000       0.757885        20.6231 
  74   0.0000       0.764698        20.8085 
  75   0.0000       0.780284        21.2326 
  76   0.0000       0.790879        21.5209 
  77   0.0000       0.812236        22.1021 
  78   0.0000       0.834653        22.7121 
  79   0.0000       0.843500        22.9528 
  80   0.0000       0.853536        23.2259 
  81   0.0000       0.863991        23.5104 
  82   0.0000       0.868687        23.6382 
  83   0.0000       0.881306        23.9816 
  84   0.0000       0.883570        24.0432 
  85   0.0000       0.935565        25.4580 
  86   0.0000       0.974750        26.5243 
  87   0.0000       0.990714        26.9587 
  88   0.0000       0.997981        27.1564 
  89   0.0000       1.002632        27.2830 
  90   0.0000       1.017797        27.6957 
  91   0.0000       1.038877        28.2693 
  92   0.0000       1.054699        28.6998 
  93   0.0000       1.104655        30.0592 
  94   0.0000       1.115441        30.3527 
  95   0.0000       1.136951        30.9380 
  96   0.0000       1.165890        31.7255 
  97   0.0000       1.178978        32.0816 
  98   0.0000       1.212411        32.9914 
  99   0.0000       1.221637        33.2424 
 100   0.0000       1.227285        33.3961 
 101   0.0000       1.278327        34.7850 
 102   0.0000       1.282750        34.9054 
 103   0.0000       1.313796        35.7502 
 104   0.0000       1.345674        36.6177 
 105   0.0000       1.359957        37.0063 
 106   0.0000       1.393225        37.9116 
 107   0.0000       1.478270        40.2258 
 108   0.0000       1.494755        40.6743 
 109   0.0000       1.505942        40.9788 
 110   0.0000       1.600850        43.5613 
 111   0.0000       1.652667        44.9714 
 112   0.0000       1.656313        45.0706 
 113   0.0000       1.667724        45.3811 
 114   0.0000       1.905670        51.8559 
 115   0.0000       1.928052        52.4650 
 116   0.0000       1.944750        52.9193 
 117   0.0000       2.003797        54.5261 
 118   0.0000       2.029133        55.2155 
 119   0.0000       2.233290        60.7709 
 120   0.0000       2.240730        60.9734 
 121   0.0000       2.326180        63.2986 
 122   0.0000       2.384606        64.8884 
 123   0.0000       2.406670        65.4888 
 124   0.0000       2.418328        65.8060 
 125   0.0000       2.463113        67.0247 
 126   0.0000       2.510552        68.3156 
 127   0.0000       2.561245        69.6950 
 128   0.0000       2.760933        75.1288 
 129   0.0000       2.779168        75.6250 
 130   0.0000       2.787486        75.8513 
 131   0.0000       2.916907        79.3731 
 132   0.0000       2.965129        80.6853 
 133   0.0000       2.981813        81.1393 
 134   0.0000       2.989417        81.3462 
 135   0.0000       3.003038        81.7168 
 136   0.0000       3.053139        83.0801 
 137   0.0000       3.061277        83.3016 
 138   0.0000       3.100539        84.3700 
 139   0.0000       3.176062        86.4250 
 140   0.0000       3.178110        86.4808 
 141   0.0000       3.248420        88.3940 
 142   0.0000       3.273604        89.0793 
 143   0.0000       3.287048        89.4451 
 144   0.0000       3.292448        89.5921 
 145   0.0000       3.321414        90.3803 
 146   0.0000       3.328364        90.5694 
 147   0.0000       3.416146        92.9581 
 148   0.0000       3.450135        93.8830 
 149   0.0000       3.463647        94.2506 
 150   0.0000       3.481338        94.7320 
 151   0.0000       3.508311        95.4660 
 152   0.0000       3.542706        96.4019 
 153   0.0000       3.544470        96.4499 
 154   0.0000       3.679283       100.1184 
 155   0.0000       3.704920       100.8160 
 156   0.0000       3.783045       102.9419 
 157   0.0000       3.785285       103.0029 
 158   0.0000       3.792499       103.1992 
 159   0.0000       3.849344       104.7460 
 160   0.0000       3.859259       105.0158 
 161   0.0000       3.860311       105.0444 
 162   0.0000       3.867709       105.2457 
 163   0.0000       3.882610       105.6512 
 164   0.0000       3.903479       106.2191 
 165   0.0000       3.951771       107.5331 
 166   0.0000       3.983614       108.3996 
 167   0.0000       4.091520       111.3359 
 168   0.0000       4.145789       112.8126 
 169   0.0000       4.152486       112.9949 
 170   0.0000       4.227811       115.0446 
 171   0.0000       4.322339       117.6168 
 172   0.0000       4.328508       117.7847 
 173   0.0000       4.350775       118.3906 
 174   0.0000       4.474166       121.7482 
 175   0.0000       4.620485       125.7298 
 176   0.0000       4.626959       125.9059 
 177   0.0000       4.680771       127.3703 
 178   0.0000       4.893096       133.1479 
 179   0.0000       4.985290       135.6566 
 180   0.0000       4.988881       135.7544 
 181   0.0000       4.992312       135.8477 
 182   0.0000       5.129271       139.5746 
 183   0.0000       5.193783       141.3300 
 184   0.0000       5.341144       145.3399 
 185   0.0000       5.345920       145.4699 
 186   0.0000       5.354614       145.7065 
 187   0.0000       5.365834       146.0118 
 188   0.0000       5.370818       146.1474 
 189   0.0000       5.382081       146.4539 
 190   0.0000       5.541274       150.7857 
 191   0.0000       5.584095       151.9510 
 192   0.0000       5.604175       152.4974 
 193   0.0000       5.719154       155.6261 
 194   0.0000       5.721885       155.7004 
 195   0.0000       6.092960       165.7979 
 196   0.0000       6.094519       165.8403 
 197   0.0000       6.385782       173.7660 
 198   0.0000       6.583876       179.1564 
 199   0.0000       6.654086       181.0669 
 200   0.0000       6.678664       181.7357 
 201   0.0000       7.089427       192.9131 
 202   0.0000       7.094605       193.0540 
 203   0.0000       7.540405       205.1848 
 204   0.0000       8.418142       229.0693 
 205   0.0000       9.550116       259.8719 
 206   0.0000       9.556099       260.0347 
 207   0.0000       9.833773       267.5906 
 208   0.0000      23.848226       648.9432 
 209   0.0000      44.668336      1215.4872 

                    ********************************
                    * MULLIKEN POPULATION ANALYSIS *
                    ********************************

-----------------------
MULLIKEN ATOMIC CHARGES
-----------------------
   0 O :   -0.189064
   1 H :    0.201665
   2 H :    0.177251
   3 C :   -0.367778
   4 H :   -0.355178
   5 H :    0.340786
   6 Al:    0.026286
   7 H :    0.166032
Sum of atomic charges:   -0.0000000

--------------------------------
MULLIKEN REDUCED ORBITAL CHARGES
--------------------------------
  0 O s       :     3.737239  s :     3.737239
      pz      :     1.740599  p :     4.445739
      px      :     0.952397
      py      :     1.752743
      dz2     :    -0.001243  d :     0.004355
      dxz     :     0.004349
      dyz     :     0.000308
      dx2y2   :    -0.005290
      dxy     :     0.006232
      f0      :     0.000152  f :     0.001731
      f+1     :     0.000341
      f-1     :     0.000023
      f+2     :     0.000262
      f-2     :     0.000008
      f+3     :     0.000573
      f-3     :     0.000371
  1 H s       :     0.768023  s :     0.768023
      pz      :     0.003056  p :     0.028079
      px      :     0.009182
      py      :     0.015841
      dz2     :     0.000190  d :     0.002233
      dxz     :     0.000085
      dyz     :     0.000655
      dx2y2   :     0.000677
      dxy     :     0.000626
  2 H s       :     0.790391  s :     0.790391
      pz      :     0.014197  p :     0.030131
      px      :     0.010375
      py      :     0.005559
      dz2     :     0.000665  d :     0.002227
      dxz     :     0.000488
      dyz     :     0.000455
      dx2y2   :     0.000374
      dxy     :     0.000246
  3 C s       :     3.329590  s :     3.329590
      pz      :     1.089687  p :     2.868592
      px      :     0.657315
      py      :     1.121590
      dz2     :     0.007756  d :     0.161129
      dxz     :     0.060636
      dyz     :     0.012888
      dx2y2   :     0.002744
      dxy     :     0.077105
      f0      :     0.001057  f :     0.008467
      f+1     :     0.000946
      f-1     :     0.000434
      f+2     :     0.001857
      f-2     :    -0.000001
      f+3     :     0.001432
      f-3     :     0.002742
  4 H s       :     1.288024  s :     1.288024
      pz      :     0.057759  p :     0.067199
      px      :     0.009143
      py      :     0.000297
      dz2     :    -0.000043  d :    -0.000045
      dxz     :    -0.000005
      dyz     :     0.000000
      dx2y2   :     0.000002
      dxy     :     0.000000
  5 H s       :     0.659524  s :     0.659524
      pz      :    -0.002639  p :    -0.000547
      px      :     0.002125
      py      :    -0.000033
      dz2     :     0.000161  d :     0.000237
      dxz     :     0.000073
      dyz     :     0.000000
      dx2y2   :     0.000003
      dxy     :     0.000000
  6 Als       :     6.081866  s :     6.081866
      pz      :     2.121903  p :     6.665378
      px      :     2.428362
      py      :     2.115113
      dz2     :     0.019405  d :     0.188070
      dxz     :     0.057808
      dyz     :     0.000071
      dx2y2   :     0.056360
      dxy     :     0.054426
      f0      :     0.005744  f :     0.038399
      f+1     :     0.003175
      f-1     :     0.000918
      f+2     :     0.009447
      f-2     :     0.000061
      f+3     :     0.004952
      f-3     :     0.014102
  7 H s       :     0.820263  s :     0.820263
      pz      :     0.004081  p :     0.011453
      px      :     0.008269
      py      :    -0.000896
      dz2     :     0.000693  d :     0.002252
      dxz     :     0.000499
      dyz     :     0.000502
      dx2y2   :     0.000358
      dxy     :     0.000199


                     *******************************
                     * LOEWDIN POPULATION ANALYSIS *
                     *******************************

----------------------
LOEWDIN ATOMIC CHARGES
----------------------
   0 O :   -0.529296
   1 H :   -0.001195
   2 H :   -0.002698
   3 C :   -0.014151
   4 H :    0.005991
   5 H :    0.040394
   6 Al:    0.514937
   7 H :   -0.013982

-------------------------------
LOEWDIN REDUCED ORBITAL CHARGES
-------------------------------
  0 O s       :     3.337718  s :     3.337718
      pz      :     1.567159  p :     4.742662
      px      :     1.616587
      py      :     1.558917
      dz2     :     0.055280  d :     0.445268
      dxz     :     0.122866
      dyz     :     0.001986
      dx2y2   :     0.143391
      dxy     :     0.121744
      f0      :     0.000347  f :     0.003648
      f+1     :     0.000676
      f-1     :     0.000052
      f+2     :     0.000589
      f-2     :     0.000026
      f+3     :     0.001113
      f-3     :     0.000844
  1 H s       :     0.709451  s :     0.709451
      pz      :     0.076429  p :     0.263550
      px      :     0.057396
      py      :     0.129725
      dz2     :     0.002981  d :     0.028194
      dxz     :     0.000953
      dyz     :     0.008758
      dx2y2   :     0.007793
      dxy     :     0.007708
  2 H s       :     0.709591  s :     0.709591
      pz      :     0.114410  p :     0.264899
      px      :     0.055270
      py      :     0.095219
      dz2     :     0.008810  d :     0.028208
      dxz     :     0.005363
      dyz     :     0.007469
      dx2y2   :     0.003669
      dxy     :     0.002898
  3 C s       :     2.666857  s :     2.666857
      pz      :     0.927210  p :     2.591862
      px      :     0.733897
      py      :     0.930755
      dz2     :     0.089376  d :     0.689871
      dxz     :     0.198665
      dyz     :     0.055968
      dx2y2   :     0.154959
      dxy     :     0.190903
      f0      :     0.006293  f :     0.065561
      f+1     :     0.010446
      f-1     :     0.004885
      f+2     :     0.010424
      f-2     :     0.004068
      f+3     :     0.013710
      f-3     :     0.015734
  4 H s       :     0.886261  s :     0.886261
      pz      :     0.086476  p :     0.101571
      px      :     0.014488
      py      :     0.000608
      dz2     :     0.004145  d :     0.006177
      dxz     :     0.001967
      dyz     :     0.000005
      dx2y2   :     0.000059
      dxy     :     0.000001
  5 H s       :     0.900056  s :     0.900056
      pz      :     0.046286  p :     0.053204
      px      :     0.006869
      py      :     0.000049
      dz2     :     0.004331  d :     0.006347
      dxz     :     0.001950
      dyz     :     0.000005
      dx2y2   :     0.000060
      dxy     :     0.000001
  6 Als       :     5.226297  s :     5.226297
      pz      :     2.099411  p :     6.730397
      px      :     2.533239
      py      :     2.097747
      dz2     :     0.049906  d :     0.368546
      dxz     :     0.099314
      dyz     :     0.000179
      dx2y2   :     0.131342
      dxy     :     0.087804
      f0      :     0.018899  f :     0.159823
      f+1     :     0.022305
      f-1     :     0.003100
      f+2     :     0.031550
      f-2     :     0.000196
      f+3     :     0.036402
      f-3     :     0.047371
  7 H s       :     0.707993  s :     0.707993
      pz      :     0.127419  p :     0.277753
      px      :     0.064800
      py      :     0.085534
      dz2     :     0.008476  d :     0.028236
      dxz     :     0.006934
      dyz     :     0.007234
      dx2y2   :     0.003065
      dxy     :     0.002528


                      *****************************
                      * MAYER POPULATION ANALYSIS *
                      *****************************

  NA   - Mulliken gross atomic population
  ZA   - Total nuclear charge
  QA   - Mulliken gross atomic charge
  VA   - Mayer's total valence
  BVA  - Mayer's bonded valence
  FA   - Mayer's free valence

  ATOM       NA         ZA         QA         VA         BVA        FA
  0 O      8.1891     8.0000    -0.1891     1.5349     1.5349    -0.0000
  1 H      0.7983     1.0000     0.2017     0.9975     0.9975    -0.0000
  2 H      0.8227     1.0000     0.1773     1.0064     1.0064     0.0000
  3 C      6.3678     6.0000    -0.3678     3.6573     3.6573    -0.0000
  4 H      1.3552     1.0000    -0.3552     0.9139     0.9139     0.0000
  5 H      0.6592     1.0000     0.3408     0.8936     0.8936     0.0000
  6 Al    12.9737    13.0000     0.0263     0.8968     0.8968    -0.0000
  7 H      0.8340     1.0000     0.1660     0.9806     0.9806    -0.0000

  Mayer bond orders larger than 0.100000
B(  0-O ,  3-C ) :   0.6785 B(  0-O ,  6-Al) :   0.8152 B(  1-H ,  3-C ) :   0.9752 
B(  2-H ,  3-C ) :   0.9898 B(  3-C ,  7-H ) :   0.9670 B(  4-H ,  5-H ) :   0.8870 


-------
TIMINGS
-------

Total SCF time: 0 days 0 hours 0 min 6 sec 

Total time                  ....       6.906 sec
Sum of individual times     ....       6.614 sec  ( 95.8%)

Fock matrix formation       ....       6.210 sec  ( 89.9%)
  XC integration            ....       0.625 sec  ( 10.1% of F)
    Basis function eval.    ....       0.062 sec  ( 10.0% of XC)
    Density eval.           ....       0.110 sec  ( 17.7% of XC)
    XC-Functional eval.     ....       0.028 sec  (  4.4% of XC)
    XC-Potential eval.      ....       0.240 sec  ( 38.4% of XC)
Diagonalization             ....       0.039 sec  (  0.6%)
Density matrix formation    ....       0.008 sec  (  0.1%)
Population analysis         ....       0.007 sec  (  0.1%)
Initial guess               ....       0.105 sec  (  1.5%)
Orbital Transformation      ....       0.000 sec  (  0.0%)
Orbital Orthonormalization  ....       0.000 sec  (  0.0%)
DIIS solution               ....       0.013 sec  (  0.2%)
SOSCF solution              ....       0.022 sec  (  0.3%)
Grid generation             ....       0.209 sec  (  3.0%)

-------------------------   --------------------
FINAL SINGLE POINT ENERGY      -358.750498085405
-------------------------   --------------------


                            ***************************************
                            *     ORCA property calculations      *
                            ***************************************

                                    ---------------------
                                    Active property flags
                                    ---------------------
   (+) Dipole Moment


------------------------------------------------------------------------------
                       ORCA ELECTRIC PROPERTIES CALCULATION
------------------------------------------------------------------------------

Dipole Moment Calculation                       ... on
Quadrupole Moment Calculation                   ... off
Polarizability Calculation                      ... off
GBWName                                         ... 048.gbw
Electron density file                           ... 048.scfp
The origin for moment calculation is the CENTER OF MASS  = ( 2.155275, -0.002589  1.222241)

-------------
DIPOLE MOMENT
-------------
                                X             Y             Z
Electronic contribution:      8.76027      -0.00555       5.31462
Nuclear contribution   :     -8.98536       0.01025      -5.24566
                        -----------------------------------------
Total Dipole Moment    :     -0.22509       0.00470       0.06896
                        -----------------------------------------
Magnitude (a.u.)       :      0.23546
Magnitude (Debye)      :      0.59850



--------------------
Rotational spectrum 
--------------------
 
Rotational constants in cm-1:     0.678137     0.159402     0.132325 
Rotational constants in MHz : 20330.024381  4778.738837  3967.007595 

 Dipole components along the rotational axes: 
x,y,z [a.u.] :     0.225089     0.068962    -0.004695 
x,y,z [Debye]:     0.572131     0.175287    -0.011935 

 

Timings for individual modules:

Sum of individual times         ...        7.998 sec (=   0.133 min)
GTO integral calculation        ...        0.665 sec (=   0.011 min)   8.3 %
SCF iterations                  ...        7.333 sec (=   0.122 min)  91.7 %
                             ****ORCA TERMINATED NORMALLY****
TOTAL RUN TIME: 0 days 0 hours 0 minutes 8 seconds 450 msec
