
                                 *****************
                                 * O   R   C   A *
                                 *****************

           --- An Ab Initio, DFT and Semiempirical electronic structure package ---

                  #######################################################
                  #                        -***-                        #
                  #          Department of theory and spectroscopy      #
                  #               Directorship: Frank Neese             #
                  #        Max Planck Institute fuer Kohlenforschung    #
                  #                Kaiser Wilhelm Platz 1               #
                  #                 D-45470 Muelheim/Ruhr               #
                  #                      Germany                        #
                  #                                                     #
                  #                  All rights reserved                #
                  #                        -***-                        #
                  #######################################################


                         Program Version 4.2.0 -  RELEASE  -


 With contributions from (in alphabetic order):
   Daniel Aravena         : Magnetic Suceptibility
   Michael Atanasov       : Ab Initio Ligand Field Theory (pilot matlab implementation)
   Alexander A. Auer      : GIAO ZORA, VPT2
   Ute Becker             : Parallelization
   Giovanni Bistoni       : ED, misc. LED, open-shell LED, HFLED
   Martin Brehm           : Molecular dynamics
   Dmytro Bykov           : SCF Hessian
   Vijay G. Chilkuri      : MRCI spin determinant printing, contributions to CSF-ICE
   Dipayan Datta          : RHF DLPNO-CCSD density
   Achintya Kumar Dutta   : EOM-CC, STEOM-CC
   Dmitry Ganyushin       : Spin-Orbit,Spin-Spin,Magnetic field MRCI
   Miquel Garcia          : C-PCM Hessian, Gaussian charge scheme
   Yang Guo               : DLPNO-NEVPT2, CIM, IAO-localization
   Andreas Hansen         : Spin unrestricted coupled pair/coupled cluster methods
   Benjamin Helmich-Paris : CASSCF linear response (MC-RPA)
   Lee Huntington         : MR-EOM, pCC
   Robert Izsak           : Overlap fitted RIJCOSX, COSX-SCS-MP3, EOM
   Christian Kollmar      : KDIIS, OOCD, Brueckner-CCSD(T), CCSD density
   Simone Kossmann        : Meta GGA functionals, TD-DFT gradient, OOMP2, MP2 Hessian
   Martin Krupicka        : AUTO-CI
   Lucas Lang             : DCDCAS
   Dagmar Lenk            : GEPOL surface, SMD
   Dimitrios Liakos       : Extrapolation schemes; Compound Job, initial MDCI parallelization
   Dimitrios Manganas     : Further ROCIS development; embedding schemes
   Dimitrios Pantazis     : SARC Basis sets
   Taras Petrenko         : DFT Hessian,TD-DFT gradient, ASA, ECA, R-Raman, ABS, FL, XAS/XES, NRVS
   Peter Pinski           : DLPNO-MP2, DLPNO-MP2 Gradient
   Christoph Reimann      : Effective Core Potentials
   Marius Retegan         : Local ZFS, SOC
   Christoph Riplinger    : Optimizer, TS searches, QM/MM, DLPNO-CCSD(T), (RO)-DLPNO pert. Triples
   Tobias Risthaus        : Range-separated hybrids, TD-DFT gradient, RPA, STAB
   Michael Roemelt        : Original ROCIS implementation
   Masaaki Saitow         : Open-shell DLPNO-CCSD energy and density
   Barbara Sandhoefer     : DKH picture change effects
   Avijit Sen             : IP-ROCIS
   Kantharuban Sivalingam : CASSCF convergence, NEVPT2, FIC-MRCI
   Bernardo de Souza      : ESD, SOC TD-DFT
   Georgi Stoychev        : AutoAux, RI-MP2 NMR
   Willem Van den Heuvel  : Paramagnetic NMR
   Boris Wezisla          : Elementary symmetry handling
   Frank Wennmohs         : Technical directorship


 We gratefully acknowledge several colleagues who have allowed us to
 interface, adapt or use parts of their codes:
   Stefan Grimme, W. Hujo, H. Kruse,             : VdW corrections, initial TS optimization,
                  C. Bannwarth                     DFT functionals, gCP, sTDA/sTD-DF
   Ed Valeev, F. Pavosevic, A. Kumar             : LibInt (2-el integral package), F12 methods
   Garnet Chan, S. Sharma, J. Yang, R. Olivares  : DMRG
   Ulf Ekstrom                                   : XCFun DFT Library
   Mihaly Kallay                                 : mrcc  (arbitrary order and MRCC methods)
   Andreas Klamt, Michael Diedenhofen            : otool_cosmo (COSMO solvation model)
   Jiri Pittner, Ondrej Demel                    : Mk-CCSD
   Frank Weinhold                                : gennbo (NPA and NBO analysis)
   Christopher J. Cramer and Donald G. Truhlar   : smd solvation model
   Lars Goerigk                                  : TD-DFT with DH, B97 family of functionals
   V. Asgeirsson, H. Jonsson                     : NEB implementation
   FAccTs GmbH                                   : IRC, NEB, NEB-TS, Multilevel, MM, QM/MM, CI optimization
   S Lehtola, MJT Oliveira, MAL Marques          : LibXC Library


 Your calculation uses the libint2 library for the computation of 2-el integrals
 For citations please refer to: http://libint.valeyev.net

 Your ORCA version has been built with support for libXC version: 4.2.3
 For citations please refer to: https://tddft.org/programs/libxc/

 This ORCA versions uses:
   CBLAS   interface :  Fast vector & matrix operations
   LAPACKE interface :  Fast linear algebra routines
   SCALAPACK package :  Parallel linear algebra routines


Your calculation utilizes the DFT-NL dispersion correction.
Cite in your paper:
Vydrov, O. A.; Van Voorhis, T. J. Chem. Phys. 2010, 133, 244103
Hujo, W.; Grimme, S. J. Chem. Theory Comput. 2011, 7, 3866 
   

----- Orbital basis set information -----
Your calculation utilizes the basis: def2-TZVPPD
   F. Weigend and R. Ahlrichs, Phys. Chem. Chem. Phys. 7, 3297 (2005).
   D. Rappoport and F. Furche, J. Chem. Phys. 133 134105 (2010).

----- AuxJK basis set information -----
Your calculation utilizes the auxiliary basis: def2/JK
   H-Ba, Hf-Rn: F. Weigend, J. Comput. Chem. 29, 167 (2008).

================================================================================
                                        WARNINGS
                       Please study these warnings very carefully!
================================================================================


INFO   : the flag for use of LIBINT has been found!

================================================================================
                                       INPUT FILE
================================================================================
NAME = 070.in
|  1> #
|  2> # 070 wB97M-V/Def2-TZVPPD
|  3> #
|  4> ! wb97m-v def2-tzvppd def2/jk grid4 nofinalgrid
|  5> 
|  6> *xyz 0 1
|  7> H          0.08530       -0.02655        1.60712
|  8> H          0.90656       -0.78582       -1.39861
|  9> Be        -0.05035        0.92778       -0.02639
| 10> H          0.07901        0.71807        1.80526
| 11> F         -0.04624       -1.68577        0.17900
| 12> C         -0.00461       -0.62157       -0.79461
| 13> H         -0.11623        2.26790        0.10895
| 14> H         -0.85344       -0.79405       -1.48072
| 15> *
| 16> 
| 17> %maxcore 5000
| 18> 
| 19> %pal
| 20> nprocs = 24
| 21> end
| 22> 
| 23> 
| 24>                          ****END OF INPUT****
================================================================================

                       ****************************
                       * Single Point Calculation *
                       ****************************

---------------------------------
CARTESIAN COORDINATES (ANGSTROEM)
---------------------------------
  H      0.085300   -0.026550    1.607120
  H      0.906560   -0.785820   -1.398610
  Be    -0.050350    0.927780   -0.026390
  H      0.079010    0.718070    1.805260
  F     -0.046240   -1.685770    0.179000
  C     -0.004610   -0.621570   -0.794610
  H     -0.116230    2.267900    0.108950
  H     -0.853440   -0.794050   -1.480720

----------------------------
CARTESIAN COORDINATES (A.U.)
----------------------------
  NO LB      ZA    FRAG     MASS         X           Y           Z
   0 H     1.0000    0     1.008    0.161194   -0.050172    3.037017
   1 H     1.0000    0     1.008    1.713150   -1.484985   -2.642990
   2 Be    4.0000    0     9.012   -0.095148    1.753250   -0.049870
   3 H     1.0000    0     1.008    0.149307    1.356956    3.411447
   4 F     9.0000    0    18.998   -0.087381   -3.185644    0.338261
   5 C     6.0000    0    12.011   -0.008712   -1.174597   -1.501595
   6 H     1.0000    0     1.008   -0.219643    4.285710    0.205886
   7 H     1.0000    0     1.008   -1.612768   -1.500537   -2.798155

--------------------------------
INTERNAL COORDINATES (ANGSTROEM)
--------------------------------
 H      0   0   0     0.000000000000     0.00000000     0.00000000
 H      1   0   0     3.207081500898     0.00000000     0.00000000
 Be     1   2   0     1.896708093382    47.95385863     0.00000000
 H      1   2   3     0.770556920740   118.15536226   332.61515603
 F      2   1   3     2.050997599852    42.60999464   224.74103801
 C      2   1   3     1.105452319822    40.68306355   290.68814003
 H      3   1   2     1.348546886245   114.64955815   203.02665553
 H      6   2   1     1.104992602419   105.70707496   180.80386071

---------------------------
INTERNAL COORDINATES (A.U.)
---------------------------
 H      0   0   0     0.000000000000     0.00000000     0.00000000
 H      1   0   0     6.060505725862     0.00000000     0.00000000
 Be     1   2   0     3.584258852484    47.95385863     0.00000000
 H      1   2   3     1.456141550796   118.15536226   332.61515603
 F      2   1   3     3.875823765051    42.60999464   224.74103801
 C      2   1   3     2.089002138572    40.68306355   290.68814003
 H      3   1   2     2.548384293755   114.64955815   203.02665553
 H      6   2   1     2.088133398580   105.70707496   180.80386071

---------------------
BASIS SET INFORMATION
---------------------
There are 4 groups of distinct atoms

 Group   1 Type H   : 5s3p1d contracted to 3s3p1d pattern {311/111/1}
 Group   2 Type Be  : 11s5p1d contracted to 5s4p1d pattern {62111/1211/1}
 Group   3 Type F   : 12s7p3d1f contracted to 6s4p3d1f pattern {621111/4111/111/1}
 Group   4 Type C   : 12s6p3d1f contracted to 6s3p3d1f pattern {621111/411/111/1}

Atom   0H    basis set group =>   1
Atom   1H    basis set group =>   1
Atom   2Be   basis set group =>   2
Atom   3H    basis set group =>   1
Atom   4F    basis set group =>   3
Atom   5C    basis set group =>   4
Atom   6H    basis set group =>   1
Atom   7H    basis set group =>   1
----------------------------------
AUXILIARY/JK BASIS SET INFORMATION
----------------------------------
There are 4 groups of distinct atoms

 Group   1 Type H   : 4s2p2d contracted to 2s2p2d pattern {31/11/11}
 Group   2 Type Be  : 10s7p4d2f contracted to 7s5p3d2f pattern {4111111/31111/211/11}
 Group   3 Type F   : 14s10p6d2f1g contracted to 10s8p4d2f1g pattern {5111111111/31111111/3111/11/1}
 Group   4 Type C   : 14s10p6d2f1g contracted to 10s8p5d1f1g pattern {5111111111/31111111/21111/2/1}

Atom   0H    basis set group =>   1
Atom   1H    basis set group =>   1
Atom   2Be   basis set group =>   2
Atom   3H    basis set group =>   1
Atom   4F    basis set group =>   3
Atom   5C    basis set group =>   4
Atom   6H    basis set group =>   1
Atom   7H    basis set group =>   1


           ************************************************************
           *        Program running with 24 parallel MPI-processes    *
           *              working on a common directory               *
           ************************************************************
------------------------------------------------------------------------------
                           ORCA GTO INTEGRAL CALCULATION
------------------------------------------------------------------------------

                         BASIS SET STATISTICS AND STARTUP INFO

 # of primitive gaussian shells          ...  107
 # of primitive gaussian functions       ...  233
 # of contracted shells                  ...   72
 # of contracted basis functions         ...  184
 Highest angular momentum                ...    3
 Maximum contraction depth               ...    6
 Integral package used                   ... LIBINT
 Integral threshhold            Thresh   ...  1.000e-10
 Primitive cut-off              TCut     ...  1.000e-11


------------------------------ INTEGRAL EVALUATION ----------------------------


 * One electron integrals 
 Pre-screening matrix                    ... done
 Shell pair data                         ... done (   0.001 sec)



           ************************************************************
           *        Program running with 24 parallel MPI-processes    *
           *              working on a common directory               *
           ************************************************************
-------------------------------------------------------------------------------
                                 ORCA SCF
-------------------------------------------------------------------------------

------------
SCF SETTINGS
------------
Hamiltonian:
 Density Functional     Method          .... DFT(GTOs)
 Exchange Functional    Exchange        .... WB97M-V
 Correlation Functional Correlation     .... WB97M-V
 Gradients option       PostSCFGGA      .... off
 Hybrid DFT is turned on
   Fraction HF Exchange ScalHFX         ....  0.150000
   Scaling of DF-GGA-X  ScalDFX         ....  0.000000
   Scaling of DF-GGA-C  ScalDFC         ....  1.000000
   Scaling of DF-LDA-C  ScalLDAC        ....  1.000000
   Perturbative correction              ....  0.000000
   Density functional embedding theory  .... OFF
 Long-range corrected/Screened/Range-Separated Hybrid DFT is turned on
   Amount of maximum screened exact exchange              ....  0.850000
   Range separation parameter mu (erf(mu*r12)/r12)        ....  0.300000
   NL short-range parameter             ....  6.000000
   NL long-range parameter              ....  0.010000


General Settings:
 Integral files         IntName         .... 070
 Hartree-Fock type      HFTyp           .... RHF
 Total Charge           Charge          ....    0
 Multiplicity           Mult            ....    1
 Number of Electrons    NEL             ....   24
 Basis Dimension        Dim             ....  184
 Nuclear Repulsion      ENuc            ....     61.1525331119 Eh

Convergence Acceleration:
 DIIS                   CNVDIIS         .... on
   Start iteration      DIISMaxIt       ....    12
   Startup error        DIISStart       ....  0.200000
   # of expansion vecs  DIISMaxEq       ....     5
   Bias factor          DIISBfac        ....   1.050
   Max. coefficient     DIISMaxC        ....  10.000
 Newton-Raphson         CNVNR           .... off
 SOSCF                  CNVSOSCF        .... on
   Start iteration      SOSCFMaxIt      ....   150
   Startup grad/error   SOSCFStart      ....  0.003300
 Level Shifting         CNVShift        .... on
   Level shift para.    LevelShift      ....    0.2500
   Turn off err/grad.   ShiftErr        ....    0.0010
 Zerner damping         CNVZerner       .... off
 Static damping         CNVDamp         .... on
   Fraction old density DampFac         ....    0.7000
   Max. Damping (<1)    DampMax         ....    0.9800
   Min. Damping (>=0)   DampMin         ....    0.0000
   Turn off err/grad.   DampErr         ....    0.1000
 Fernandez-Rico         CNVRico         .... off

SCF Procedure:
 Maximum # iterations   MaxIter         ....   125
 SCF integral mode      SCFMode         .... Direct
   Integral package                     .... LIBINT
 Reset frequency        DirectResetFreq ....    20
 Integral Threshold     Thresh          ....  1.000e-10 Eh
 Primitive CutOff       TCut            ....  1.000e-11 Eh

Convergence Tolerance:
 Convergence Check Mode ConvCheckMode   .... Total+1el-Energy
 Convergence forced     ConvForced      .... 0
 Energy Change          TolE            ....  1.000e-06 Eh
 1-El. energy change                    ....  1.000e-03 Eh
 Orbital Gradient       TolG            ....  5.000e-05
 Orbital Rotation angle TolX            ....  5.000e-05
 DIIS Error             TolErr          ....  1.000e-06


Diagonalization of the overlap matrix:
Smallest eigenvalue                        ... 3.700e-05
Time for diagonalization                   ...    0.009 sec
Threshold for overlap eigenvalues          ... 1.000e-08
Number of eigenvalues below threshold      ... 0
Time for construction of square roots      ...    0.003 sec
Total time needed                          ...    0.012 sec

-------------------
DFT GRID GENERATION
-------------------

General Integration Accuracy     IntAcc      ...  4.670
Radial Grid Type                 RadialGrid  ... Gauss-Chebyshev
Angular Grid (max. acc.)         AngularGrid ... Lebedev-302
Angular grid pruning method      GridPruning ... 3 (G Style)
Weight generation scheme         WeightScheme... Becke
Basis function cutoff            BFCut       ...    1.0000e-10
Integration weight cutoff        WCut        ...    1.0000e-14
Grids for H and He will be reduced by one unit

# of grid points (after initial pruning)     ...  35414 (   0.0 sec)
# of grid points (after weights+screening)   ...  33837 (   0.0 sec)
nearest neighbour list constructed           ...    0.0 sec
Grid point re-assignment to atoms done       ...    0.0 sec
Grid point division into batches done        ...    0.1 sec
Reduced shell lists constructed in    0.1 sec

Total number of grid points                  ...    33837
Total number of batches                      ...      532
Average number of points per batch           ...       63
Average number of grid points per atom       ...     4230
Average number of shells per batch           ...    42.46 (58.97%)
Average number of basis functions per batch  ...   106.38 (57.81%)
Average number of large shells per batch     ...    34.42 (81.06%)
Average number of large basis fcns per batch ...    84.58 (79.51%)
Maximum spatial batch extension              ...  18.83, 12.62, 17.46 au
Average spatial batch extension              ...   0.28,  0.21,  0.26 au

Time for grid setup =    0.182 sec

------------------------------
INITIAL GUESS: MODEL POTENTIAL
------------------------------
Loading Hartree-Fock densities                     ... done
Calculating cut-offs                               ... done
Setting up the integral package                    ... done
Initializing the effective Hamiltonian             ... done
Starting the Coulomb interaction                   ... done (   0.0 sec)
Reading the grid                                   ... done
Mapping shells                                     ... done
Starting the XC term evaluation                    ... done (   0.0 sec)
  promolecular density results
     # of electrons  =     23.997510267
     EX              =    -19.209779643
     EC              =     -0.735359335
     EX+EC           =    -19.945138978
Transforming the Hamiltonian                       ... done (   0.0 sec)
Diagonalizing the Hamiltonian                      ... done (   0.0 sec)
Back transforming the eigenvectors                 ... done (   0.0 sec)
Now organizing SCF variables                       ... done
                      ------------------
                      INITIAL GUESS DONE (   0.3 sec)
                      ------------------
--------------
SCF ITERATIONS
--------------
ITER       Energy         Delta-E        Max-DP      RMS-DP      [F,P]     Damp
               ***  Starting incremental Fock matrix formation  ***
  0   -155.6688087297   0.000000000000 0.03511906  0.00092931  0.1453861 0.7000
  1   -155.6899756254  -0.021166895752 0.03270516  0.00078892  0.0893326 0.7000
                               ***Turning on DIIS***
  2   -155.7019720220  -0.011996396630 0.08201078  0.00189952  0.0503177 0.0000
  3   -155.7237318721  -0.021759850091 0.01620358  0.00029665  0.0320945 0.0000
  4   -155.7258718891  -0.002140017003 0.00232369  0.00009669  0.0041149 0.0000
                      *** Initiating the SOSCF procedure ***
                           *** Shutting down DIIS ***
                      *** Re-Reading the Fockian *** 
                      *** Removing any level shift *** 
ITER      Energy       Delta-E        Grad      Rot      Max-DP    RMS-DP
  5   -155.72591144  -0.0000395530  0.000454  0.000454  0.001339  0.000042
               *** Restarting incremental Fock matrix formation ***
  6   -155.72592313  -0.0000116893  0.000217  0.000476  0.001027  0.000028
  7   -155.72592469  -0.0000015565  0.000178  0.000219  0.000482  0.000014
  8   -155.72592559  -0.0000009060  0.000025  0.000033  0.000121  0.000004
                 **** Energy Check signals convergence ****
              ***Rediagonalizing the Fockian in SOSCF/NRSCF***

               *****************************************************
               *                     SUCCESS                       *
               *           SCF CONVERGED AFTER   9 CYCLES          *
               *****************************************************


Setting up the DFT-NL grid :

General Integration Accuracy     IntAcc      ...  4.340
Radial Grid Type                 RadialGrid  ... Gauss-Chebyshev
Angular Grid (max. acc.)         AngularGrid ... Lebedev-110
Angular grid pruning method      GridPruning ... 3 (G Style)
Weight generation scheme         WeightScheme... Becke
Basis function cutoff            BFCut       ...    1.0000e-10
Integration weight cutoff        WCut        ...    1.0000e-14
Grids for H and He will be reduced by one unit

# of grid points (after initial pruning)     ...   9044 (   0.0 sec)
# of grid points (after weights+screening)   ...   8685 (   0.0 sec)
nearest neighbour list constructed           ...    0.0 sec
Grid point re-assignment to atoms done       ...    0.0 sec
Grid point division into batches done        ...    0.0 sec
Reduced shell lists constructed in    0.0 sec

Total number of grid points                  ...     8685
Total number of batches                      ...      140
Average number of points per batch           ...       62
Average number of grid points per atom       ...     1086
Average number of shells per batch           ...    47.00 (65.28%)
Average number of basis functions per batch  ...   120.43 (65.45%)
Average number of large shells per batch     ...    40.71 (86.63%)
Average number of large basis fcns per batch ...   102.71 (85.29%)
Maximum spatial batch extension              ...  24.86, 12.63, 19.95 au
Average spatial batch extension              ...   0.49,  0.25,  0.36 au

Final grid set up in    0.0 sec

-------------------------------------------------------------------------------
                         DFT-NL dispersion correction                          
-------------------------------------------------------------------------------

SC Energy -155.725925620 
NL    Energy 0.098494889 
SC+NL Energy -155.627430731 
NL done in    0.0 sec
-------------------------------------------------------------------------------

----------------
TOTAL SCF ENERGY
----------------

Total Energy       :         -155.62743073 Eh           -4234.83769 eV

Components:
Nuclear Repulsion  :           61.15253311 Eh            1664.04502 eV
Electronic Energy  :         -216.77996384 Eh           -5898.88271 eV
One Electron Energy:         -334.50772645 Eh           -9102.41799 eV
Two Electron Energy:          117.72776261 Eh            3203.53529 eV

Virial components:
Potential Energy   :         -310.72710368 Eh           -8455.31435 eV
Kinetic Energy     :          155.09967295 Eh            4220.47667 eV
Virial Ratio       :            2.00340270


DFT components:
N(Alpha)           :       11.999977707949 electrons
N(Beta)            :       11.999977707949 electrons
N(Total)           :       23.999955415897 electrons
E(X)               :      -13.731787469224 Eh       
E(C)               :       -0.719479518356 Eh       
NL Energy, E(C,NL) :        0.098494889104 Eh       
E(XC)              :      -14.352772098476 Eh       
DFET-embed. en.    :        0.000000000000 Eh       

---------------
SCF CONVERGENCE
---------------

  Last Energy change         ...   -2.6581e-08  Tolerance :   1.0000e-06
  Last MAX-Density change    ...    4.8388e-05  Tolerance :   1.0000e-05
  Last RMS-Density change    ...    1.2421e-06  Tolerance :   1.0000e-06
  Last Orbital Gradient      ...    1.1026e-05  Tolerance :   5.0000e-05
  Last Orbital Rotation      ...    2.1669e-05  Tolerance :   5.0000e-05

             **** THE GBW FILE WAS UPDATED (070.gbw) ****
             **** DENSITY FILE WAS UPDATED (070.scfp) ****
             **** ENERGY FILE WAS UPDATED (070.en.tmp) ****
             **** THE GBW FILE WAS UPDATED (070.gbw) ****
             **** DENSITY FILE WAS UPDATED (070.scfp) ****
----------------
ORBITAL ENERGIES
----------------

  NO   OCC          E(Eh)            E(eV) 
   0   2.0000     -24.877530      -676.9520 
   1   2.0000     -10.386253      -282.6243 
   2   2.0000      -4.167801      -113.4116 
   3   2.0000      -1.300760       -35.3955 
   4   2.0000      -0.789513       -21.4837 
   5   2.0000      -0.630910       -17.1679 
   6   2.0000      -0.573644       -15.6096 
   7   2.0000      -0.571631       -15.5549 
   8   2.0000      -0.532219       -14.4824 
   9   2.0000      -0.445964       -12.1353 
  10   2.0000      -0.421759       -11.4766 
  11   2.0000      -0.386363       -10.5135 
  12   0.0000       0.013417         0.3651 
  13   0.0000       0.028724         0.7816 
  14   0.0000       0.034837         0.9480 
  15   0.0000       0.041576         1.1314 
  16   0.0000       0.073418         1.9978 
  17   0.0000       0.075236         2.0473 
  18   0.0000       0.090154         2.4532 
  19   0.0000       0.107511         2.9255 
  20   0.0000       0.127016         3.4563 
  21   0.0000       0.133172         3.6238 
  22   0.0000       0.139720         3.8020 
  23   0.0000       0.160907         4.3785 
  24   0.0000       0.170993         4.6529 
  25   0.0000       0.188421         5.1272 
  26   0.0000       0.202735         5.5167 
  27   0.0000       0.215351         5.8600 
  28   0.0000       0.225597         6.1388 
  29   0.0000       0.230171         6.2633 
  30   0.0000       0.239454         6.5159 
  31   0.0000       0.258727         7.0403 
  32   0.0000       0.267507         7.2792 
  33   0.0000       0.268866         7.3162 
  34   0.0000       0.281737         7.6665 
  35   0.0000       0.293721         7.9925 
  36   0.0000       0.300644         8.1810 
  37   0.0000       0.331095         9.0096 
  38   0.0000       0.334999         9.1158 
  39   0.0000       0.348359         9.4793 
  40   0.0000       0.355193         9.6653 
  41   0.0000       0.368024        10.0144 
  42   0.0000       0.371946        10.1212 
  43   0.0000       0.387211        10.5365 
  44   0.0000       0.394446        10.7334 
  45   0.0000       0.399427        10.8690 
  46   0.0000       0.415846        11.3157 
  47   0.0000       0.446440        12.1482 
  48   0.0000       0.468382        12.7453 
  49   0.0000       0.487556        13.2671 
  50   0.0000       0.501944        13.6586 
  51   0.0000       0.503782        13.7086 
  52   0.0000       0.531136        14.4529 
  53   0.0000       0.552300        15.0288 
  54   0.0000       0.594398        16.1744 
  55   0.0000       0.596757        16.2386 
  56   0.0000       0.605217        16.4688 
  57   0.0000       0.647327        17.6147 
  58   0.0000       0.673564        18.3286 
  59   0.0000       0.676691        18.4137 
  60   0.0000       0.687830        18.7168 
  61   0.0000       0.700635        19.0653 
  62   0.0000       0.709656        19.3107 
  63   0.0000       0.713725        19.4214 
  64   0.0000       0.740980        20.1631 
  65   0.0000       0.763781        20.7835 
  66   0.0000       0.776795        21.1377 
  67   0.0000       0.801416        21.8076 
  68   0.0000       0.816838        22.2273 
  69   0.0000       0.847838        23.0708 
  70   0.0000       0.864702        23.5297 
  71   0.0000       0.900850        24.5134 
  72   0.0000       0.942606        25.6496 
  73   0.0000       0.965884        26.2830 
  74   0.0000       1.054917        28.7057 
  75   0.0000       1.081706        29.4347 
  76   0.0000       1.097855        29.8741 
  77   0.0000       1.113966        30.3126 
  78   0.0000       1.127600        30.6836 
  79   0.0000       1.144653        31.1476 
  80   0.0000       1.191240        32.4153 
  81   0.0000       1.200386        32.6642 
  82   0.0000       1.224529        33.3211 
  83   0.0000       1.256195        34.1828 
  84   0.0000       1.265177        34.4272 
  85   0.0000       1.321958        35.9723 
  86   0.0000       1.328978        36.1633 
  87   0.0000       1.371225        37.3129 
  88   0.0000       1.413989        38.4766 
  89   0.0000       1.421142        38.6712 
  90   0.0000       1.470248        40.0075 
  91   0.0000       1.531532        41.6751 
  92   0.0000       1.558666        42.4135 
  93   0.0000       1.628275        44.3076 
  94   0.0000       1.694416        46.1074 
  95   0.0000       1.706887        46.4468 
  96   0.0000       1.902723        51.7757 
  97   0.0000       1.921960        52.2992 
  98   0.0000       2.164300        58.8936 
  99   0.0000       2.327960        63.3470 
 100   0.0000       2.415185        65.7205 
 101   0.0000       2.431650        66.1685 
 102   0.0000       2.469283        67.1926 
 103   0.0000       2.492073        67.8128 
 104   0.0000       2.531873        68.8958 
 105   0.0000       2.609822        71.0169 
 106   0.0000       2.685545        73.0774 
 107   0.0000       2.769983        75.3751 
 108   0.0000       2.800797        76.2136 
 109   0.0000       2.841923        77.3326 
 110   0.0000       2.908621        79.1476 
 111   0.0000       2.970705        80.8370 
 112   0.0000       2.973579        80.9152 
 113   0.0000       3.038578        82.6839 
 114   0.0000       3.063939        83.3740 
 115   0.0000       3.086079        83.9765 
 116   0.0000       3.167326        86.1873 
 117   0.0000       3.186704        86.7146 
 118   0.0000       3.225233        87.7631 
 119   0.0000       3.269293        88.9620 
 120   0.0000       3.294033        89.6352 
 121   0.0000       3.303430        89.8909 
 122   0.0000       3.335132        90.7535 
 123   0.0000       3.345883        91.0461 
 124   0.0000       3.359603        91.4194 
 125   0.0000       3.405032        92.6556 
 126   0.0000       3.495309        95.1122 
 127   0.0000       3.512122        95.5697 
 128   0.0000       3.535811        96.2143 
 129   0.0000       3.555940        96.7620 
 130   0.0000       3.591811        97.7382 
 131   0.0000       3.601916        98.0131 
 132   0.0000       3.654484        99.4436 
 133   0.0000       3.742173       101.8297 
 134   0.0000       3.772916       102.6663 
 135   0.0000       3.779603       102.8482 
 136   0.0000       3.798675       103.3672 
 137   0.0000       3.852195       104.8236 
 138   0.0000       3.879531       105.5674 
 139   0.0000       3.901298       106.1597 
 140   0.0000       3.981254       108.3354 
 141   0.0000       4.013784       109.2206 
 142   0.0000       4.045795       110.0917 
 143   0.0000       4.086911       111.2105 
 144   0.0000       4.097801       111.5068 
 145   0.0000       4.152214       112.9875 
 146   0.0000       4.188497       113.9748 
 147   0.0000       4.200414       114.2991 
 148   0.0000       4.215707       114.7152 
 149   0.0000       4.313673       117.3810 
 150   0.0000       4.320124       117.5566 
 151   0.0000       4.401453       119.7696 
 152   0.0000       4.410004       120.0023 
 153   0.0000       4.692508       127.6896 
 154   0.0000       4.704433       128.0141 
 155   0.0000       4.900346       133.3452 
 156   0.0000       4.905664       133.4899 
 157   0.0000       5.131935       139.6470 
 158   0.0000       5.173580       140.7803 
 159   0.0000       5.242119       142.6453 
 160   0.0000       5.279948       143.6747 
 161   0.0000       5.353834       145.6852 
 162   0.0000       5.443087       148.1139 
 163   0.0000       5.469118       148.8223 
 164   0.0000       5.561106       151.3254 
 165   0.0000       5.780139       157.2856 
 166   0.0000       6.090326       165.7262 
 167   0.0000       6.479032       176.3034 
 168   0.0000       6.944711       188.9752 
 169   0.0000       7.032075       191.3525 
 170   0.0000       7.054275       191.9566 
 171   0.0000       7.114857       193.6051 
 172   0.0000       7.176251       195.2757 
 173   0.0000       7.389189       201.0700 
 174   0.0000       7.396889       201.2796 
 175   0.0000       7.501347       204.1220 
 176   0.0000       8.266886       224.9534 
 177   0.0000       8.699219       236.7178 
 178   0.0000       8.716724       237.1941 
 179   0.0000       8.952272       243.6037 
 180   0.0000       8.972037       244.1415 
 181   0.0000       9.458483       257.3784 
 182   0.0000      23.290201       633.7586 
 183   0.0000      57.857552      1574.3840 

                    ********************************
                    * MULLIKEN POPULATION ANALYSIS *
                    ********************************

-----------------------
MULLIKEN ATOMIC CHARGES
-----------------------
   0 H :    0.031492
   1 H :    0.103765
   2 Be:    0.072538
   3 H :    0.017982
   4 F :   -0.303089
   5 C :    0.017306
   6 H :   -0.040368
   7 H :    0.100375
Sum of atomic charges:    0.0000000

--------------------------------
MULLIKEN REDUCED ORBITAL CHARGES
--------------------------------
  0 H s       :     0.918402  s :     0.918402
      pz      :     0.001821  p :     0.049817
      px      :     0.001214
      py      :     0.046782
      dz2     :     0.000064  d :     0.000290
      dxz     :     0.000006
      dyz     :    -0.000027
      dx2y2   :     0.000247
      dxy     :     0.000002
  1 H s       :     0.854993  s :     0.854993
      pz      :     0.013155  p :     0.038755
      px      :     0.012174
      py      :     0.013425
      dz2     :     0.000441  d :     0.002487
      dxz     :     0.000492
      dyz     :     0.000378
      dx2y2   :     0.000581
      dxy     :     0.000595
  2 Bes       :     2.764619  s :     2.764619
      pz      :     0.195853  p :     1.073121
      px      :     0.033010
      py      :     0.844258
      dz2     :     0.030169  d :     0.089723
      dxz     :     0.004405
      dyz     :     0.026248
      dx2y2   :     0.015690
      dxy     :     0.013210
  3 H s       :     0.912872  s :     0.912872
      pz      :     0.015346  p :     0.068902
      px      :     0.000318
      py      :     0.053239
      dz2     :    -0.000076  d :     0.000243
      dxz     :     0.000002
      dyz     :     0.000162
      dx2y2   :     0.000155
      dxy     :    -0.000000
  4 F s       :     3.943544  s :     3.943544
      pz      :     1.716920  p :     5.335944
      px      :     1.947468
      py      :     1.671556
      dz2     :     0.005544  d :     0.023163
      dxz     :     0.002885
      dyz     :     0.006195
      dx2y2   :     0.005422
      dxy     :     0.003116
      f0      :     0.000046  f :     0.000438
      f+1     :     0.000012
      f-1     :     0.000134
      f+2     :     0.000128
      f-2     :     0.000056
      f+3     :     0.000023
      f-3     :     0.000039
  5 C s       :     3.161337  s :     3.161337
      pz      :     0.850183  p :     2.726587
      px      :     1.007595
      py      :     0.868809
      dz2     :    -0.035964  d :     0.086467
      dxz     :     0.036590
      dyz     :     0.027247
      dx2y2   :     0.043674
      dxy     :     0.014919
      f0      :     0.001179  f :     0.008304
      f+1     :     0.000263
      f-1     :     0.001964
      f+2     :     0.001662
      f-2     :     0.001782
      f+3     :     0.000714
      f-3     :     0.000739
  6 H s       :     1.025854  s :     1.025854
      pz      :     0.004473  p :     0.013973
      px      :     0.000539
      py      :     0.008961
      dz2     :     0.000127  d :     0.000540
      dxz     :    -0.000000
      dyz     :     0.000036
      dx2y2   :     0.000373
      dxy     :     0.000004
  7 H s       :     0.854902  s :     0.854902
      pz      :     0.018142  p :     0.042238
      px      :     0.009696
      py      :     0.014400
      dz2     :     0.000513  d :     0.002485
      dxz     :     0.000435
      dyz     :     0.000472
      dx2y2   :     0.000570
      dxy     :     0.000497


                     *******************************
                     * LOEWDIN POPULATION ANALYSIS *
                     *******************************

----------------------
LOEWDIN ATOMIC CHARGES
----------------------
   0 H :    0.081910
   1 H :   -0.048741
   2 Be:    0.351394
   3 H :    0.076165
   4 F :   -0.187185
   5 C :   -0.123102
   6 H :   -0.100912
   7 H :   -0.049528

-------------------------------
LOEWDIN REDUCED ORBITAL CHARGES
-------------------------------
  0 H s       :     0.724820  s :     0.724820
      pz      :     0.063799  p :     0.186531
      px      :     0.004566
      py      :     0.118166
      dz2     :     0.001308  d :     0.006739
      dxz     :     0.000016
      dyz     :     0.000944
      dx2y2   :     0.004445
      dxy     :     0.000027
  1 H s       :     0.723217  s :     0.723217
      pz      :     0.089150  p :     0.296278
      px      :     0.126777
      py      :     0.080351
      dz2     :     0.004887  d :     0.029246
      dxz     :     0.008360
      dyz     :     0.003571
      dx2y2   :     0.006853
      dxy     :     0.005575
  2 Bes       :     2.463085  s :     2.463085
      pz      :     0.219251  p :     0.929304
      px      :     0.044657
      py      :     0.665396
      dz2     :     0.091467  d :     0.256217
      dxz     :     0.012028
      dyz     :     0.059272
      dx2y2   :     0.061177
      dxy     :     0.032273
  3 H s       :     0.760566  s :     0.760566
      pz      :     0.063713  p :     0.156818
      px      :     0.001156
      py      :     0.091949
      dz2     :     0.000786  d :     0.006452
      dxz     :     0.000014
      dyz     :     0.001726
      dx2y2   :     0.003923
      dxy     :     0.000004
  4 F s       :     3.634399  s :     3.634399
      pz      :     1.722803  p :     5.290962
      px      :     1.861061
      py      :     1.707097
      dz2     :     0.066609  d :     0.260762
      dxz     :     0.043245
      dyz     :     0.066442
      dx2y2   :     0.049298
      dxy     :     0.035168
      f0      :     0.000141  f :     0.001063
      f+1     :     0.000037
      f-1     :     0.000298
      f+2     :     0.000227
      f-2     :     0.000184
      f+3     :     0.000072
      f-3     :     0.000103
  5 C s       :     2.731846  s :     2.731846
      pz      :     0.824035  p :     2.688930
      px      :     0.959383
      py      :     0.905513
      dz2     :     0.125700  d :     0.637909
      dxz     :     0.140978
      dyz     :     0.165191
      dx2y2   :     0.153870
      dxy     :     0.052171
      f0      :     0.009746  f :     0.064418
      f+1     :     0.002923
      f-1     :     0.014787
      f+2     :     0.014055
      f-2     :     0.011135
      f+3     :     0.005188
      f-3     :     0.006584
  6 H s       :     1.012832  s :     1.012832
      pz      :     0.019707  p :     0.085267
      px      :     0.002031
      py      :     0.063530
      dz2     :     0.000647  d :     0.002813
      dxz     :     0.000001
      dyz     :     0.000267
      dx2y2   :     0.001836
      dxy     :     0.000062
  7 H s       :     0.723167  s :     0.723167
      pz      :     0.095175  p :     0.297055
      px      :     0.121028
      py      :     0.080852
      dz2     :     0.005649  d :     0.029306
      dxz     :     0.008248
      dyz     :     0.004420
      dx2y2   :     0.006253
      dxy     :     0.004737


                      *****************************
                      * MAYER POPULATION ANALYSIS *
                      *****************************

  NA   - Mulliken gross atomic population
  ZA   - Total nuclear charge
  QA   - Mulliken gross atomic charge
  VA   - Mayer's total valence
  BVA  - Mayer's bonded valence
  FA   - Mayer's free valence

  ATOM       NA         ZA         QA         VA         BVA        FA
  0 H      0.9685     1.0000     0.0315     1.0696     1.0696     0.0000
  1 H      0.8962     1.0000     0.1038     1.0334     1.0334    -0.0000
  2 Be     3.9275     4.0000     0.0725     2.2631     2.2631     0.0000
  3 H      0.9820     1.0000     0.0180     1.0395     1.0395     0.0000
  4 F      9.3031     9.0000    -0.3031     0.8312     0.8312     0.0000
  5 C      5.9827     6.0000     0.0173     3.8613     3.8613     0.0000
  6 H      1.0404     1.0000    -0.0404     1.0408     1.0408     0.0000
  7 H      0.8996     1.0000     0.1004     1.0515     1.0515     0.0000

  Mayer bond orders larger than 0.100000
B(  0-H ,  2-Be) :   0.1428 B(  0-H ,  3-H ) :   0.9156 B(  1-H ,  5-C ) :   1.0093 
B(  2-Be,  3-H ) :   0.1208 B(  2-Be,  5-C ) :   1.0672 B(  2-Be,  6-H ) :   0.8878 
B(  4-F ,  5-C ) :   0.7526 B(  5-C ,  7-H ) :   1.0125 

-------
TIMINGS
-------

Total SCF time: 0 days 0 hours 0 min 4 sec 

Total time                  ....       4.501 sec
Sum of individual times     ....       4.253 sec  ( 94.5%)

Fock matrix formation       ....       3.895 sec  ( 86.5%)
  XC integration            ....       0.427 sec  ( 11.0% of F)
    Basis function eval.    ....       0.052 sec  ( 12.2% of XC)
    Density eval.           ....       0.079 sec  ( 18.6% of XC)
    XC-Functional eval.     ....       0.024 sec  (  5.7% of XC)
    XC-Potential eval.      ....       0.162 sec  ( 37.9% of XC)
Diagonalization             ....       0.027 sec  (  0.6%)
Density matrix formation    ....       0.006 sec  (  0.1%)
Population analysis         ....       0.006 sec  (  0.1%)
Initial guess               ....       0.102 sec  (  2.3%)
Orbital Transformation      ....       0.000 sec  (  0.0%)
Orbital Orthonormalization  ....       0.000 sec  (  0.0%)
DIIS solution               ....       0.010 sec  (  0.2%)
SOSCF solution              ....       0.010 sec  (  0.2%)
Grid generation             ....       0.197 sec  (  4.4%)

-------------------------   --------------------
FINAL SINGLE POINT ENERGY      -155.627430731328
-------------------------   --------------------


                            ***************************************
                            *     ORCA property calculations      *
                            ***************************************

                                    ---------------------
                                    Active property flags
                                    ---------------------
   (+) Dipole Moment


------------------------------------------------------------------------------
                       ORCA ELECTRIC PROPERTIES CALCULATION
------------------------------------------------------------------------------

Dipole Moment Calculation                       ... on
Quadrupole Moment Calculation                   ... off
Polarizability Calculation                      ... off
GBWName                                         ... 070.gbw
Electron density file                           ... 070.scfp
The origin for moment calculation is the CENTER OF MASS  = (-0.053914, -1.247217 -0.240472)

-------------
DIPOLE MOMENT
-------------
                                X             Y             Z
Electronic contribution:     -0.19724      -3.57554      -0.73792
Nuclear contribution   :      0.26588       3.83479       0.81982
                        -----------------------------------------
Total Dipole Moment    :      0.06863       0.25925       0.08190
                        -----------------------------------------
Magnitude (a.u.)       :      0.28041
Magnitude (Debye)      :      0.71275



--------------------
Rotational spectrum 
--------------------
 
Rotational constants in cm-1:     0.879452     0.304630     0.236523 
Rotational constants in MHz : 26365.310047  9132.583609  7090.795310 

 Dipole components along the rotational axes: 
x,y,z [a.u.] :     0.259254     0.081903    -0.068633 
x,y,z [Debye]:     0.658972     0.208181    -0.174452 

 

Timings for individual modules:

Sum of individual times         ...        5.571 sec (=   0.093 min)
GTO integral calculation        ...        0.663 sec (=   0.011 min)  11.9 %
SCF iterations                  ...        4.907 sec (=   0.082 min)  88.1 %
                             ****ORCA TERMINATED NORMALLY****
TOTAL RUN TIME: 0 days 0 hours 0 minutes 6 seconds 15 msec
