
                                 *****************
                                 * O   R   C   A *
                                 *****************

           --- An Ab Initio, DFT and Semiempirical electronic structure package ---

                  #######################################################
                  #                        -***-                        #
                  #          Department of theory and spectroscopy      #
                  #               Directorship: Frank Neese             #
                  #        Max Planck Institute fuer Kohlenforschung    #
                  #                Kaiser Wilhelm Platz 1               #
                  #                 D-45470 Muelheim/Ruhr               #
                  #                      Germany                        #
                  #                                                     #
                  #                  All rights reserved                #
                  #                        -***-                        #
                  #######################################################


                         Program Version 4.2.0 -  RELEASE  -


 With contributions from (in alphabetic order):
   Daniel Aravena         : Magnetic Suceptibility
   Michael Atanasov       : Ab Initio Ligand Field Theory (pilot matlab implementation)
   Alexander A. Auer      : GIAO ZORA, VPT2
   Ute Becker             : Parallelization
   Giovanni Bistoni       : ED, misc. LED, open-shell LED, HFLED
   Martin Brehm           : Molecular dynamics
   Dmytro Bykov           : SCF Hessian
   Vijay G. Chilkuri      : MRCI spin determinant printing, contributions to CSF-ICE
   Dipayan Datta          : RHF DLPNO-CCSD density
   Achintya Kumar Dutta   : EOM-CC, STEOM-CC
   Dmitry Ganyushin       : Spin-Orbit,Spin-Spin,Magnetic field MRCI
   Miquel Garcia          : C-PCM Hessian, Gaussian charge scheme
   Yang Guo               : DLPNO-NEVPT2, CIM, IAO-localization
   Andreas Hansen         : Spin unrestricted coupled pair/coupled cluster methods
   Benjamin Helmich-Paris : CASSCF linear response (MC-RPA)
   Lee Huntington         : MR-EOM, pCC
   Robert Izsak           : Overlap fitted RIJCOSX, COSX-SCS-MP3, EOM
   Christian Kollmar      : KDIIS, OOCD, Brueckner-CCSD(T), CCSD density
   Simone Kossmann        : Meta GGA functionals, TD-DFT gradient, OOMP2, MP2 Hessian
   Martin Krupicka        : AUTO-CI
   Lucas Lang             : DCDCAS
   Dagmar Lenk            : GEPOL surface, SMD
   Dimitrios Liakos       : Extrapolation schemes; Compound Job, initial MDCI parallelization
   Dimitrios Manganas     : Further ROCIS development; embedding schemes
   Dimitrios Pantazis     : SARC Basis sets
   Taras Petrenko         : DFT Hessian,TD-DFT gradient, ASA, ECA, R-Raman, ABS, FL, XAS/XES, NRVS
   Peter Pinski           : DLPNO-MP2, DLPNO-MP2 Gradient
   Christoph Reimann      : Effective Core Potentials
   Marius Retegan         : Local ZFS, SOC
   Christoph Riplinger    : Optimizer, TS searches, QM/MM, DLPNO-CCSD(T), (RO)-DLPNO pert. Triples
   Tobias Risthaus        : Range-separated hybrids, TD-DFT gradient, RPA, STAB
   Michael Roemelt        : Original ROCIS implementation
   Masaaki Saitow         : Open-shell DLPNO-CCSD energy and density
   Barbara Sandhoefer     : DKH picture change effects
   Avijit Sen             : IP-ROCIS
   Kantharuban Sivalingam : CASSCF convergence, NEVPT2, FIC-MRCI
   Bernardo de Souza      : ESD, SOC TD-DFT
   Georgi Stoychev        : AutoAux, RI-MP2 NMR
   Willem Van den Heuvel  : Paramagnetic NMR
   Boris Wezisla          : Elementary symmetry handling
   Frank Wennmohs         : Technical directorship


 We gratefully acknowledge several colleagues who have allowed us to
 interface, adapt or use parts of their codes:
   Stefan Grimme, W. Hujo, H. Kruse,             : VdW corrections, initial TS optimization,
                  C. Bannwarth                     DFT functionals, gCP, sTDA/sTD-DF
   Ed Valeev, F. Pavosevic, A. Kumar             : LibInt (2-el integral package), F12 methods
   Garnet Chan, S. Sharma, J. Yang, R. Olivares  : DMRG
   Ulf Ekstrom                                   : XCFun DFT Library
   Mihaly Kallay                                 : mrcc  (arbitrary order and MRCC methods)
   Andreas Klamt, Michael Diedenhofen            : otool_cosmo (COSMO solvation model)
   Jiri Pittner, Ondrej Demel                    : Mk-CCSD
   Frank Weinhold                                : gennbo (NPA and NBO analysis)
   Christopher J. Cramer and Donald G. Truhlar   : smd solvation model
   Lars Goerigk                                  : TD-DFT with DH, B97 family of functionals
   V. Asgeirsson, H. Jonsson                     : NEB implementation
   FAccTs GmbH                                   : IRC, NEB, NEB-TS, Multilevel, MM, QM/MM, CI optimization
   S Lehtola, MJT Oliveira, MAL Marques          : LibXC Library


 Your calculation uses the libint2 library for the computation of 2-el integrals
 For citations please refer to: http://libint.valeyev.net

 Your ORCA version has been built with support for libXC version: 4.2.3
 For citations please refer to: https://tddft.org/programs/libxc/

 This ORCA versions uses:
   CBLAS   interface :  Fast vector & matrix operations
   LAPACKE interface :  Fast linear algebra routines
   SCALAPACK package :  Parallel linear algebra routines


Your calculation utilizes the DFT-NL dispersion correction.
Cite in your paper:
Vydrov, O. A.; Van Voorhis, T. J. Chem. Phys. 2010, 133, 244103
Hujo, W.; Grimme, S. J. Chem. Theory Comput. 2011, 7, 3866 
   

----- Orbital basis set information -----
Your calculation utilizes the basis: def2-TZVPPD
   F. Weigend and R. Ahlrichs, Phys. Chem. Chem. Phys. 7, 3297 (2005).
   D. Rappoport and F. Furche, J. Chem. Phys. 133 134105 (2010).

----- AuxJK basis set information -----
Your calculation utilizes the auxiliary basis: def2/JK
   H-Ba, Hf-Rn: F. Weigend, J. Comput. Chem. 29, 167 (2008).

================================================================================
                                        WARNINGS
                       Please study these warnings very carefully!
================================================================================


WARNING: your system is open-shell and RHF/RKS was chosen
  ===> : WILL SWITCH to UHF/UKS


INFO   : the flag for use of LIBINT has been found!

================================================================================
                                       INPUT FILE
================================================================================
NAME = 104.in
|  1> #
|  2> # 104 wB97M-V/Def2-TZVPPD
|  3> #
|  4> ! wb97m-v def2-tzvppd def2/jk grid4 nofinalgrid
|  5> 
|  6> *xyz 0 2
|  7> C          0.18239        0.81792       -0.17289
|  8> H         -2.32613        0.04031        1.01174
|  9> H          2.24798        0.73105       -0.01871
| 10> C          1.34005        0.10819       -0.12066
| 11> H          0.11379        1.91914       -0.21133
| 12> Si        -1.43329       -0.14152       -0.20061
| 13> H         -1.02937       -1.64029       -0.13873
| 14> Li         0.90457       -1.83481       -0.14881
| 15> *
| 16> 
| 17> %maxcore 5000
| 18> 
| 19> %pal
| 20> nprocs = 24
| 21> end
| 22> 
| 23> 
| 24>                          ****END OF INPUT****
================================================================================

                       ****************************
                       * Single Point Calculation *
                       ****************************

---------------------------------
CARTESIAN COORDINATES (ANGSTROEM)
---------------------------------
  C      0.182390    0.817920   -0.172890
  H     -2.326130    0.040310    1.011740
  H      2.247980    0.731050   -0.018710
  C      1.340050    0.108190   -0.120660
  H      0.113790    1.919140   -0.211330
  Si    -1.433290   -0.141520   -0.200610
  H     -1.029370   -1.640290   -0.138730
  Li     0.904570   -1.834810   -0.148810

----------------------------
CARTESIAN COORDINATES (A.U.)
----------------------------
  NO LB      ZA    FRAG     MASS         X           Y           Z
   0 C     6.0000    0    12.011    0.344667    1.545645   -0.326715
   1 H     1.0000    0     1.008   -4.395749    0.076175    1.911912
   2 H     1.0000    0     1.008    4.248067    1.381484   -0.035357
   3 C     6.0000    0    12.011    2.532328    0.204449   -0.228014
   4 H     1.0000    0     1.008    0.215032    3.626649   -0.399356
   5 Si   14.0000    0    28.086   -2.708526   -0.267434   -0.379098
   6 H     1.0000    0     1.008   -1.945227   -3.099699   -0.262162
   7 Li    3.0000    0     6.941    1.709390   -3.467288   -0.281210

--------------------------------
INTERNAL COORDINATES (ANGSTROEM)
--------------------------------
 C      0   0   0     0.000000000000     0.00000000     0.00000000
 H      1   0   0     2.881093219492     0.00000000     0.00000000
 H      1   2   0     2.073156992946   145.65110357     0.00000000
 C      3   1   2     1.105750996834    36.74033397    60.26063611
 H      1   2   4     1.104024040499   103.26355878   206.01422625
 Si     2   1   3     1.516581002453    36.00953826   245.85043630
 H      6   2   1     1.553477394010   103.70381678   115.06980497
 Li     7   6   2     1.943724147198   110.79629298   235.24261074

---------------------------
INTERNAL COORDINATES (A.U.)
---------------------------
 C      0   0   0     0.000000000000     0.00000000     0.00000000
 H      1   0   0     5.444477151136     0.00000000     0.00000000
 H      1   2   0     3.917698949291   145.65110357     0.00000000
 C      3   1   2     2.089566556327    36.74033397    60.26063611
 H      1   2   4     2.086303081809   103.26355878   206.01422625
 Si     2   1   3     2.865922754543    36.00953826   245.85043630
 H      6   2   1     2.935646829917   103.70381678   115.06980497
 Li     7   6   2     3.673106318094   110.79629298   235.24261074

---------------------
BASIS SET INFORMATION
---------------------
There are 4 groups of distinct atoms

 Group   1 Type C   : 12s6p3d1f contracted to 6s3p3d1f pattern {621111/411/111/1}
 Group   2 Type H   : 5s3p1d contracted to 3s3p1d pattern {311/111/1}
 Group   3 Type Si  : 15s9p4d1f contracted to 6s5p4d1f pattern {732111/51111/1111/1}
 Group   4 Type Li  : 11s4p1d contracted to 5s4p1d pattern {62111/1111/1}

Atom   0C    basis set group =>   1
Atom   1H    basis set group =>   2
Atom   2H    basis set group =>   2
Atom   3C    basis set group =>   1
Atom   4H    basis set group =>   2
Atom   5Si   basis set group =>   3
Atom   6H    basis set group =>   2
Atom   7Li   basis set group =>   4
----------------------------------
AUXILIARY/JK BASIS SET INFORMATION
----------------------------------
There are 4 groups of distinct atoms

 Group   1 Type C   : 14s10p6d2f1g contracted to 10s8p5d1f1g pattern {5111111111/31111111/21111/2/1}
 Group   2 Type H   : 4s2p2d contracted to 2s2p2d pattern {31/11/11}
 Group   3 Type Si  : 16s12p10d4f1g contracted to 13s11p9d4f1g pattern {4111111111111/21111111111/211111111/1111/1}
 Group   4 Type Li  : 10s7p4d2f contracted to 7s5p3d2f pattern {4111111/31111/211/11}

Atom   0C    basis set group =>   1
Atom   1H    basis set group =>   2
Atom   2H    basis set group =>   2
Atom   3C    basis set group =>   1
Atom   4H    basis set group =>   2
Atom   5Si   basis set group =>   3
Atom   6H    basis set group =>   2
Atom   7Li   basis set group =>   4


           ************************************************************
           *        Program running with 24 parallel MPI-processes    *
           *              working on a common directory               *
           ************************************************************
------------------------------------------------------------------------------
                           ORCA GTO INTEGRAL CALCULATION
------------------------------------------------------------------------------

                         BASIS SET STATISTICS AND STARTUP INFO

 # of primitive gaussian shells          ...  125
 # of primitive gaussian functions       ...  277
 # of contracted shells                  ...   80
 # of contracted basis functions         ...  212
 Highest angular momentum                ...    3
 Maximum contraction depth               ...    7
 Integral package used                   ... LIBINT
 Integral threshhold            Thresh   ...  1.000e-10
 Primitive cut-off              TCut     ...  1.000e-11


------------------------------ INTEGRAL EVALUATION ----------------------------


 * One electron integrals 
 Pre-screening matrix                    ... done
 Shell pair data                         ... done (   0.001 sec)



           ************************************************************
           *        Program running with 24 parallel MPI-processes    *
           *              working on a common directory               *
           ************************************************************
-------------------------------------------------------------------------------
                                 ORCA SCF
-------------------------------------------------------------------------------

------------
SCF SETTINGS
------------
Hamiltonian:
 Density Functional     Method          .... DFT(GTOs)
 Exchange Functional    Exchange        .... WB97M-V
 Correlation Functional Correlation     .... WB97M-V
 Gradients option       PostSCFGGA      .... off
 Hybrid DFT is turned on
   Fraction HF Exchange ScalHFX         ....  0.150000
   Scaling of DF-GGA-X  ScalDFX         ....  0.000000
   Scaling of DF-GGA-C  ScalDFC         ....  1.000000
   Scaling of DF-LDA-C  ScalLDAC        ....  1.000000
   Perturbative correction              ....  0.000000
   Density functional embedding theory  .... OFF
 Long-range corrected/Screened/Range-Separated Hybrid DFT is turned on
   Amount of maximum screened exact exchange              ....  0.850000
   Range separation parameter mu (erf(mu*r12)/r12)        ....  0.300000
   NL short-range parameter             ....  6.000000
   NL long-range parameter              ....  0.010000


General Settings:
 Integral files         IntName         .... 104
 Hartree-Fock type      HFTyp           .... UHF
 Total Charge           Charge          ....    0
 Multiplicity           Mult            ....    2
 Number of Electrons    NEL             ....   33
 Basis Dimension        Dim             ....  212
 Nuclear Repulsion      ENuc            ....    100.1175538757 Eh

Convergence Acceleration:
 DIIS                   CNVDIIS         .... on
   Start iteration      DIISMaxIt       ....    12
   Startup error        DIISStart       ....  0.200000
   # of expansion vecs  DIISMaxEq       ....     5
   Bias factor          DIISBfac        ....   1.050
   Max. coefficient     DIISMaxC        ....  10.000
 Newton-Raphson         CNVNR           .... off
 SOSCF                  CNVSOSCF        .... off
 Level Shifting         CNVShift        .... on
   Level shift para.    LevelShift      ....    0.2500
   Turn off err/grad.   ShiftErr        ....    0.0010
 Zerner damping         CNVZerner       .... off
 Static damping         CNVDamp         .... on
   Fraction old density DampFac         ....    0.7000
   Max. Damping (<1)    DampMax         ....    0.9800
   Min. Damping (>=0)   DampMin         ....    0.0000
   Turn off err/grad.   DampErr         ....    0.1000
 Fernandez-Rico         CNVRico         .... off

SCF Procedure:
 Maximum # iterations   MaxIter         ....   125
 SCF integral mode      SCFMode         .... Direct
   Integral package                     .... LIBINT
 Reset frequency        DirectResetFreq ....    20
 Integral Threshold     Thresh          ....  1.000e-10 Eh
 Primitive CutOff       TCut            ....  1.000e-11 Eh

Convergence Tolerance:
 Convergence Check Mode ConvCheckMode   .... Total+1el-Energy
 Convergence forced     ConvForced      .... 0
 Energy Change          TolE            ....  1.000e-06 Eh
 1-El. energy change                    ....  1.000e-03 Eh
 DIIS Error             TolErr          ....  1.000e-06


Diagonalization of the overlap matrix:
Smallest eigenvalue                        ... 8.995e-06
Time for diagonalization                   ...    0.007 sec
Threshold for overlap eigenvalues          ... 1.000e-08
Number of eigenvalues below threshold      ... 0
Time for construction of square roots      ...    0.006 sec
Total time needed                          ...    0.013 sec

-------------------
DFT GRID GENERATION
-------------------

General Integration Accuracy     IntAcc      ...  4.670
Radial Grid Type                 RadialGrid  ... Gauss-Chebyshev
Angular Grid (max. acc.)         AngularGrid ... Lebedev-302
Angular grid pruning method      GridPruning ... 3 (G Style)
Weight generation scheme         WeightScheme... Becke
Basis function cutoff            BFCut       ...    1.0000e-10
Integration weight cutoff        WCut        ...    1.0000e-14
Grids for H and He will be reduced by one unit

# of grid points (after initial pruning)     ...  38614 (   0.0 sec)
# of grid points (after weights+screening)   ...  36710 (   0.0 sec)
nearest neighbour list constructed           ...    0.0 sec
Grid point re-assignment to atoms done       ...    0.0 sec
Grid point division into batches done        ...    0.1 sec
Reduced shell lists constructed in    0.2 sec

Total number of grid points                  ...    36710
Total number of batches                      ...      577
Average number of points per batch           ...       63
Average number of grid points per atom       ...     4589
Average number of shells per batch           ...    65.00 (81.25%)
Average number of basis functions per batch  ...   179.77 (84.80%)
Average number of large shells per batch     ...    56.92 (87.57%)
Average number of large basis fcns per batch ...   159.00 (88.45%)
Maximum spatial batch extension              ...   3.68,  3.55, 17.08 au
Average spatial batch extension              ...   0.08,  0.08,  0.11 au

Time for grid setup =    0.263 sec

------------------------------
INITIAL GUESS: MODEL POTENTIAL
------------------------------
Loading Hartree-Fock densities                     ... done
Calculating cut-offs                               ... done
Setting up the integral package                    ... done
Initializing the effective Hamiltonian             ... done
Starting the Coulomb interaction                   ... done (   0.0 sec)
Reading the grid                                   ... done
Mapping shells                                     ... done
Starting the XC term evaluation                    ... done (   0.0 sec)
  promolecular density results
     # of electrons  =     32.998045738
     EX              =    -33.300058507
     EC              =     -1.072305799
     EX+EC           =    -34.372364306
Transforming the Hamiltonian                       ... done (   0.0 sec)
Diagonalizing the Hamiltonian                      ... done (   0.0 sec)
Back transforming the eigenvectors                 ... done (   0.0 sec)
Now organizing SCF variables                       ... done
                      ------------------
                      INITIAL GUESS DONE (   0.4 sec)
                      ------------------
--------------
SCF ITERATIONS
--------------
ITER       Energy         Delta-E        Max-DP      RMS-DP      [F,P]     Damp
               ***  Starting incremental Fock matrix formation  ***
  0   -375.4030208617   0.000000000000 0.04059896  0.00075552  0.2354225 0.7000
  1   -375.4976021833  -0.094581321657 0.03333169  0.00068051  0.1304310 0.7000
                               ***Turning on DIIS***
  2   -375.5431629828  -0.045560799416 0.06592424  0.00157190  0.0546444 0.0000
  3   -375.6086026756  -0.065439692845 0.01787642  0.00039753  0.0790988 0.0000
  4   -375.6264525053  -0.017849829654 0.01568663  0.00021687  0.0182461 0.0000
  5   -375.6281849280  -0.001732422723 0.00463211  0.00010314  0.0051400 0.0000
  6   -375.6286043736  -0.000419445626 0.00226262  0.00005803  0.0023617 0.0000
  7   -375.6287442548  -0.000139881147 0.00156978  0.00003948  0.0014813 0.0000
  8   -375.6287960151  -0.000051760356 0.00153588  0.00004089  0.0007447 0.0000
  9   -375.6288092355  -0.000013220379 0.00074821  0.00001169  0.0002034 0.0000
 10   -375.6288079998   0.000001235652 0.00030709  0.00000475  0.0000860 0.0000
                 **** Energy Check signals convergence ****

               *****************************************************
               *                     SUCCESS                       *
               *           SCF CONVERGED AFTER  11 CYCLES          *
               *****************************************************


Setting up the DFT-NL grid :

General Integration Accuracy     IntAcc      ...  4.340
Radial Grid Type                 RadialGrid  ... Gauss-Chebyshev
Angular Grid (max. acc.)         AngularGrid ... Lebedev-110
Angular grid pruning method      GridPruning ... 3 (G Style)
Weight generation scheme         WeightScheme... Becke
Basis function cutoff            BFCut       ...    1.0000e-10
Integration weight cutoff        WCut        ...    1.0000e-14
Grids for H and He will be reduced by one unit

# of grid points (after initial pruning)     ...   9994 (   0.0 sec)
# of grid points (after weights+screening)   ...   9566 (   0.0 sec)
nearest neighbour list constructed           ...    0.0 sec
Grid point re-assignment to atoms done       ...    0.0 sec
Grid point division into batches done        ...    0.0 sec
Reduced shell lists constructed in    0.0 sec

Total number of grid points                  ...     9566
Total number of batches                      ...      152
Average number of points per batch           ...       62
Average number of grid points per atom       ...     1196
Average number of shells per batch           ...    62.12 (77.66%)
Average number of basis functions per batch  ...   170.88 (80.60%)
Average number of large shells per batch     ...    55.25 (88.93%)
Average number of large basis fcns per batch ...   154.00 (90.12%)
Maximum spatial batch extension              ...   3.86,  3.29, 19.48 au
Average spatial batch extension              ...   0.11,  0.12,  0.23 au

Final grid set up in    0.0 sec

-------------------------------------------------------------------------------
                         DFT-NL dispersion correction                          
-------------------------------------------------------------------------------

SC Energy -375.628807618 
NL    Energy 0.133350975 
SC+NL Energy -375.495456643 
NL done in    0.0 sec
-------------------------------------------------------------------------------

----------------
TOTAL SCF ENERGY
----------------

Total Energy       :         -375.49545664 Eh          -10217.75084 eV

Components:
Nuclear Repulsion  :          100.11755388 Eh            2724.33714 eV
Electronic Energy  :         -475.61301052 Eh          -12942.08798 eV
One Electron Energy:         -715.26687949 Eh          -19463.40129 eV
Two Electron Energy:          239.65386897 Eh            6521.31331 eV

Virial components:
Potential Energy   :         -749.95529960 Eh          -20407.32119 eV
Kinetic Energy     :          374.45984296 Eh           10189.57035 eV
Virial Ratio       :            2.00276562


DFT components:
N(Alpha)           :       17.000003138312 electrons
N(Beta)            :       16.000012227821 electrons
N(Total)           :       33.000015366132 electrons
E(X)               :      -24.587002099961 Eh       
E(C)               :       -1.101360300937 Eh       
NL Energy, E(C,NL) :        0.133350975425 Eh       
E(XC)              :      -25.555011425473 Eh       
DFET-embed. en.    :        0.000000000000 Eh       

---------------
SCF CONVERGENCE
---------------

  Last Energy change         ...    3.8180e-07  Tolerance :   1.0000e-06
  Last MAX-Density change    ...    2.5161e-04  Tolerance :   1.0000e-05
  Last RMS-Density change    ...    3.4733e-06  Tolerance :   1.0000e-06
  Last DIIS Error            ...    4.7816e-05  Tolerance :   1.0000e-06

             **** THE GBW FILE WAS UPDATED (104.gbw) ****
             **** DENSITY FILE WAS UPDATED (104.scfp) ****
             **** ENERGY FILE WAS UPDATED (104.en.tmp) ****
----------------------
UHF SPIN CONTAMINATION
----------------------

Warning: in a DFT calculation there is little theoretical justification to 
         calculate <S**2> as in Hartree-Fock theory. We will do it anyways
         but you should keep in mind that the values have only limited relevance

Expectation value of <S**2>     :     0.757034
Ideal value S*(S+1) for S=0.5   :     0.750000
Deviation                       :     0.007034

             **** THE GBW FILE WAS UPDATED (104.gbw) ****
             **** DENSITY FILE WAS UPDATED (104.scfp) ****
----------------
ORBITAL ENERGIES
----------------
                 SPIN UP ORBITALS
  NO   OCC          E(Eh)            E(eV) 
   0   1.0000     -66.403641     -1806.9349 
   1   1.0000     -10.320858      -280.8448 
   2   1.0000     -10.297918      -280.2206 
   3   1.0000      -5.437240      -147.9548 
   4   1.0000      -3.754931      -102.1769 
   5   1.0000      -3.750993      -102.0697 
   6   1.0000      -3.748381      -101.9986 
   7   1.0000      -2.118667       -57.6519 
   8   1.0000      -0.837972       -22.8024 
   9   1.0000      -0.654877       -17.8201 
  10   1.0000      -0.589061       -16.0292 
  11   1.0000      -0.513148       -13.9635 
  12   1.0000      -0.441781       -12.0215 
  13   1.0000      -0.413849       -11.2614 
  14   1.0000      -0.360040        -9.7972 
  15   1.0000      -0.305950        -8.3253 
  16   1.0000      -0.263557        -7.1718 
  17   0.0000      -0.016278        -0.4429 
  18   0.0000       0.016398         0.4462 
  19   0.0000       0.022183         0.6036 
  20   0.0000       0.038125         1.0374 
  21   0.0000       0.066152         1.8001 
  22   0.0000       0.072692         1.9780 
  23   0.0000       0.076482         2.0812 
  24   0.0000       0.079509         2.1636 
  25   0.0000       0.094483         2.5710 
  26   0.0000       0.104525         2.8443 
  27   0.0000       0.108495         2.9523 
  28   0.0000       0.129244         3.5169 
  29   0.0000       0.135817         3.6958 
  30   0.0000       0.141565         3.8522 
  31   0.0000       0.147785         4.0214 
  32   0.0000       0.151631         4.1261 
  33   0.0000       0.174561         4.7500 
  34   0.0000       0.184073         5.0089 
  35   0.0000       0.193196         5.2571 
  36   0.0000       0.207983         5.6595 
  37   0.0000       0.213144         5.8000 
  38   0.0000       0.228852         6.2274 
  39   0.0000       0.233545         6.3551 
  40   0.0000       0.236104         6.4247 
  41   0.0000       0.252504         6.8710 
  42   0.0000       0.268683         7.3112 
  43   0.0000       0.275998         7.5103 
  44   0.0000       0.281718         7.6659 
  45   0.0000       0.302373         8.2280 
  46   0.0000       0.308504         8.3948 
  47   0.0000       0.318422         8.6647 
  48   0.0000       0.328164         8.9298 
  49   0.0000       0.333320         9.0701 
  50   0.0000       0.346079         9.4173 
  51   0.0000       0.360394         9.8068 
  52   0.0000       0.363394         9.8884 
  53   0.0000       0.364336         9.9141 
  54   0.0000       0.376755        10.2520 
  55   0.0000       0.381787        10.3889 
  56   0.0000       0.392939        10.6924 
  57   0.0000       0.399963        10.8835 
  58   0.0000       0.414208        11.2712 
  59   0.0000       0.422788        11.5047 
  60   0.0000       0.447023        12.1641 
  61   0.0000       0.456385        12.4189 
  62   0.0000       0.462136        12.5754 
  63   0.0000       0.480835        13.0842 
  64   0.0000       0.487530        13.2664 
  65   0.0000       0.502649        13.6778 
  66   0.0000       0.514618        14.0035 
  67   0.0000       0.524097        14.2614 
  68   0.0000       0.538371        14.6498 
  69   0.0000       0.549255        14.9460 
  70   0.0000       0.557378        15.1670 
  71   0.0000       0.568270        15.4634 
  72   0.0000       0.580419        15.7940 
  73   0.0000       0.594444        16.1756 
  74   0.0000       0.597994        16.2722 
  75   0.0000       0.627585        17.0775 
  76   0.0000       0.636706        17.3257 
  77   0.0000       0.655685        17.8421 
  78   0.0000       0.680678        18.5222 
  79   0.0000       0.684277        18.6201 
  80   0.0000       0.697125        18.9697 
  81   0.0000       0.713613        19.4184 
  82   0.0000       0.719566        19.5804 
  83   0.0000       0.753138        20.4939 
  84   0.0000       0.771290        20.9879 
  85   0.0000       0.804873        21.9017 
  86   0.0000       0.811804        22.0903 
  87   0.0000       0.835676        22.7399 
  88   0.0000       0.845630        23.0108 
  89   0.0000       0.868430        23.6312 
  90   0.0000       0.880411        23.9572 
  91   0.0000       0.916620        24.9425 
  92   0.0000       0.936565        25.4852 
  93   0.0000       0.968764        26.3614 
  94   0.0000       0.983491        26.7622 
  95   0.0000       1.030351        28.0373 
  96   0.0000       1.044535        28.4232 
  97   0.0000       1.058955        28.8156 
  98   0.0000       1.069640        29.1064 
  99   0.0000       1.091271        29.6950 
 100   0.0000       1.124229        30.5918 
 101   0.0000       1.140435        31.0328 
 102   0.0000       1.159620        31.5549 
 103   0.0000       1.169944        31.8358 
 104   0.0000       1.194654        32.5082 
 105   0.0000       1.216411        33.1002 
 106   0.0000       1.246688        33.9241 
 107   0.0000       1.270425        34.5700 
 108   0.0000       1.316681        35.8287 
 109   0.0000       1.364855        37.1396 
 110   0.0000       1.374568        37.4039 
 111   0.0000       1.386821        37.7373 
 112   0.0000       1.419812        38.6350 
 113   0.0000       1.437015        39.1032 
 114   0.0000       1.466205        39.8975 
 115   0.0000       1.481990        40.3270 
 116   0.0000       1.502149        40.8756 
 117   0.0000       1.524803        41.4920 
 118   0.0000       1.531261        41.6677 
 119   0.0000       1.579698        42.9858 
 120   0.0000       1.587341        43.1938 
 121   0.0000       1.612387        43.8753 
 122   0.0000       1.658160        45.1208 
 123   0.0000       1.724575        46.9281 
 124   0.0000       1.769281        48.1446 
 125   0.0000       1.775136        48.3039 
 126   0.0000       1.818677        49.4887 
 127   0.0000       1.833094        49.8810 
 128   0.0000       1.905257        51.8447 
 129   0.0000       1.926356        52.4188 
 130   0.0000       1.962780        53.4100 
 131   0.0000       1.965588        53.4864 
 132   0.0000       2.093018        56.9539 
 133   0.0000       2.178247        59.2731 
 134   0.0000       2.235530        60.8319 
 135   0.0000       2.354985        64.0824 
 136   0.0000       2.399725        65.2998 
 137   0.0000       2.697249        73.3959 
 138   0.0000       2.734871        74.4196 
 139   0.0000       2.773633        75.4744 
 140   0.0000       2.822452        76.8028 
 141   0.0000       2.828645        76.9713 
 142   0.0000       2.883520        78.4646 
 143   0.0000       2.904789        79.0433 
 144   0.0000       2.982432        81.1561 
 145   0.0000       2.991284        81.3970 
 146   0.0000       3.045605        82.8751 
 147   0.0000       3.048373        82.9504 
 148   0.0000       3.131650        85.2165 
 149   0.0000       3.179527        86.5193 
 150   0.0000       3.213616        87.4469 
 151   0.0000       3.272067        89.0375 
 152   0.0000       3.284428        89.3738 
 153   0.0000       3.324561        90.4659 
 154   0.0000       3.337711        90.8237 
 155   0.0000       3.357732        91.3685 
 156   0.0000       3.368469        91.6607 
 157   0.0000       3.403005        92.6005 
 158   0.0000       3.443584        93.7047 
 159   0.0000       3.445814        93.7654 
 160   0.0000       3.480977        94.7222 
 161   0.0000       3.503667        95.3396 
 162   0.0000       3.539594        96.3172 
 163   0.0000       3.553325        96.6909 
 164   0.0000       3.574996        97.2806 
 165   0.0000       3.600652        97.9787 
 166   0.0000       3.631349        98.8140 
 167   0.0000       3.687809       100.3504 
 168   0.0000       3.699923       100.6800 
 169   0.0000       3.751582       102.0857 
 170   0.0000       3.782720       102.9330 
 171   0.0000       3.819350       103.9298 
 172   0.0000       3.860518       105.0500 
 173   0.0000       3.926289       106.8398 
 174   0.0000       3.959399       107.7407 
 175   0.0000       4.005230       108.9879 
 176   0.0000       4.036487       109.8384 
 177   0.0000       4.047399       110.1353 
 178   0.0000       4.095539       111.4453 
 179   0.0000       4.137327       112.5824 
 180   0.0000       4.163134       113.2846 
 181   0.0000       4.182059       113.7996 
 182   0.0000       4.280637       116.4820 
 183   0.0000       4.395258       119.6011 
 184   0.0000       4.431634       120.5909 
 185   0.0000       4.459019       121.3361 
 186   0.0000       4.525137       123.1352 
 187   0.0000       4.610477       125.4575 
 188   0.0000       4.700575       127.9091 
 189   0.0000       4.721020       128.4655 
 190   0.0000       4.745337       129.1272 
 191   0.0000       4.757060       129.4462 
 192   0.0000       4.893118       133.1485 
 193   0.0000       4.934060       134.2626 
 194   0.0000       4.965320       135.1132 
 195   0.0000       5.009453       136.3141 
 196   0.0000       5.133610       139.6926 
 197   0.0000       5.282957       143.7566 
 198   0.0000       5.338079       145.2565 
 199   0.0000       5.381485       146.4376 
 200   0.0000       5.473409       148.9390 
 201   0.0000       5.704287       155.2215 
 202   0.0000       6.057280       164.8270 
 203   0.0000       6.236309       169.6986 
 204   0.0000       6.298106       171.3802 
 205   0.0000       6.444986       175.3770 
 206   0.0000       6.848153       186.3477 
 207   0.0000       6.938347       188.8020 
 208   0.0000      11.880852       323.2944 
 209   0.0000      14.958689       407.0466 
 210   0.0000      22.886549       622.7747 
 211   0.0000      23.378154       636.1519 

                 SPIN DOWN ORBITALS
  NO   OCC          E(Eh)            E(eV) 
   0   1.0000     -66.400436     -1806.8477 
   1   1.0000     -10.320089      -280.8239 
   2   1.0000     -10.295709      -280.1605 
   3   1.0000      -5.433864      -147.8629 
   4   1.0000      -3.748798      -102.0100 
   5   1.0000      -3.746361      -101.9437 
   6   1.0000      -3.744819      -101.9017 
   7   1.0000      -2.118705       -57.6529 
   8   1.0000      -0.833277       -22.6746 
   9   1.0000      -0.642208       -17.4754 
  10   1.0000      -0.581240       -15.8163 
  11   1.0000      -0.506542       -13.7837 
  12   1.0000      -0.434400       -11.8206 
  13   1.0000      -0.405950       -11.0465 
  14   1.0000      -0.342459        -9.3188 
  15   1.0000      -0.294356        -8.0098 
  16   0.0000      -0.051423        -1.3993 
  17   0.0000      -0.016048        -0.4367 
  18   0.0000       0.012893         0.3508 
  19   0.0000       0.015654         0.4260 
  20   0.0000       0.031729         0.8634 
  21   0.0000       0.043601         1.1864 
  22   0.0000       0.049755         1.3539 
  23   0.0000       0.071489         1.9453 
  24   0.0000       0.077592         2.1114 
  25   0.0000       0.091625         2.4932 
  26   0.0000       0.096845         2.6353 
  27   0.0000       0.104774         2.8510 
  28   0.0000       0.110194         2.9985 
  29   0.0000       0.116970         3.1829 
  30   0.0000       0.126543         3.4434 
  31   0.0000       0.137913         3.7528 
  32   0.0000       0.139492         3.7958 
  33   0.0000       0.168019         4.5720 
  34   0.0000       0.175776         4.7831 
  35   0.0000       0.190485         5.1833 
  36   0.0000       0.200428         5.4539 
  37   0.0000       0.206754         5.6261 
  38   0.0000       0.224305         6.1036 
  39   0.0000       0.229442         6.2434 
  40   0.0000       0.230632         6.2758 
  41   0.0000       0.245077         6.6689 
  42   0.0000       0.263629         7.1737 
  43   0.0000       0.268825         7.3151 
  44   0.0000       0.278888         7.5889 
  45   0.0000       0.295750         8.0478 
  46   0.0000       0.300452         8.1757 
  47   0.0000       0.316332         8.6078 
  48   0.0000       0.319314         8.6890 
  49   0.0000       0.325536         8.8583 
  50   0.0000       0.343980         9.3602 
  51   0.0000       0.356430         9.6990 
  52   0.0000       0.358232         9.7480 
  53   0.0000       0.363042         9.8789 
  54   0.0000       0.373428        10.1615 
  55   0.0000       0.376124        10.2348 
  56   0.0000       0.391524        10.6539 
  57   0.0000       0.399504        10.8710 
  58   0.0000       0.412038        11.2121 
  59   0.0000       0.418037        11.3754 
  60   0.0000       0.442461        12.0400 
  61   0.0000       0.453546        12.3416 
  62   0.0000       0.461492        12.5578 
  63   0.0000       0.478551        13.0220 
  64   0.0000       0.487198        13.2573 
  65   0.0000       0.500461        13.6182 
  66   0.0000       0.516551        14.0561 
  67   0.0000       0.523137        14.2353 
  68   0.0000       0.537978        14.6391 
  69   0.0000       0.549070        14.9409 
  70   0.0000       0.557996        15.1838 
  71   0.0000       0.568558        15.4712 
  72   0.0000       0.580728        15.8024 
  73   0.0000       0.592444        16.1212 
  74   0.0000       0.601657        16.3719 
  75   0.0000       0.626059        17.0359 
  76   0.0000       0.635681        17.2978 
  77   0.0000       0.653564        17.7844 
  78   0.0000       0.681148        18.5350 
  79   0.0000       0.685891        18.6640 
  80   0.0000       0.696575        18.9548 
  81   0.0000       0.718561        19.5530 
  82   0.0000       0.719378        19.5753 
  83   0.0000       0.754050        20.5187 
  84   0.0000       0.772243        21.0138 
  85   0.0000       0.803568        21.8662 
  86   0.0000       0.811413        22.0797 
  87   0.0000       0.836690        22.7675 
  88   0.0000       0.849196        23.1078 
  89   0.0000       0.868217        23.6254 
  90   0.0000       0.883227        24.0338 
  91   0.0000       0.918723        24.9997 
  92   0.0000       0.944064        25.6893 
  93   0.0000       0.975668        26.5493 
  94   0.0000       0.987482        26.8708 
  95   0.0000       1.033705        28.1285 
  96   0.0000       1.055312        28.7165 
  97   0.0000       1.064718        28.9725 
  98   0.0000       1.079841        29.3840 
  99   0.0000       1.104814        30.0635 
 100   0.0000       1.130978        30.7755 
 101   0.0000       1.155795        31.4508 
 102   0.0000       1.176811        32.0227 
 103   0.0000       1.184180        32.2232 
 104   0.0000       1.203105        32.7381 
 105   0.0000       1.224950        33.3326 
 106   0.0000       1.260054        34.2878 
 107   0.0000       1.285998        34.9938 
 108   0.0000       1.325974        36.0816 
 109   0.0000       1.377899        37.4945 
 110   0.0000       1.389879        37.8205 
 111   0.0000       1.399982        38.0955 
 112   0.0000       1.428916        38.8828 
 113   0.0000       1.453711        39.5575 
 114   0.0000       1.474615        40.1263 
 115   0.0000       1.501371        40.8544 
 116   0.0000       1.514612        41.2147 
 117   0.0000       1.541317        41.9414 
 118   0.0000       1.566612        42.6297 
 119   0.0000       1.591003        43.2934 
 120   0.0000       1.602220        43.5986 
 121   0.0000       1.618420        44.0394 
 122   0.0000       1.682345        45.7789 
 123   0.0000       1.736711        47.2583 
 124   0.0000       1.781840        48.4863 
 125   0.0000       1.785280        48.5799 
 126   0.0000       1.829360        49.7794 
 127   0.0000       1.846823        50.2546 
 128   0.0000       1.911826        52.0234 
 129   0.0000       1.937553        52.7235 
 130   0.0000       1.969610        53.5958 
 131   0.0000       1.971750        53.6540 
 132   0.0000       2.098144        57.0934 
 133   0.0000       2.182495        59.3887 
 134   0.0000       2.239961        60.9524 
 135   0.0000       2.360280        64.2265 
 136   0.0000       2.404455        65.4285 
 137   0.0000       2.704028        73.5803 
 138   0.0000       2.743027        74.6416 
 139   0.0000       2.784481        75.7696 
 140   0.0000       2.831370        77.0455 
 141   0.0000       2.841251        77.3144 
 142   0.0000       2.894567        78.7652 
 143   0.0000       2.914397        79.3048 
 144   0.0000       2.989669        81.3530 
 145   0.0000       3.000076        81.6362 
 146   0.0000       3.052196        83.0545 
 147   0.0000       3.054485        83.1168 
 148   0.0000       3.135171        85.3123 
 149   0.0000       3.187608        86.7392 
 150   0.0000       3.221173        87.6526 
 151   0.0000       3.282855        89.3310 
 152   0.0000       3.296280        89.6963 
 153   0.0000       3.331795        90.6627 
 154   0.0000       3.350857        91.1815 
 155   0.0000       3.367104        91.6236 
 156   0.0000       3.377967        91.9192 
 157   0.0000       3.408788        92.7578 
 158   0.0000       3.448786        93.8462 
 159   0.0000       3.457480        94.0828 
 160   0.0000       3.489515        94.9545 
 161   0.0000       3.514541        95.6355 
 162   0.0000       3.561533        96.9143 
 163   0.0000       3.572826        97.2215 
 164   0.0000       3.603080        98.0448 
 165   0.0000       3.615727        98.3889 
 166   0.0000       3.642096        99.1065 
 167   0.0000       3.708265       100.9070 
 168   0.0000       3.721144       101.2575 
 169   0.0000       3.766670       102.4963 
 170   0.0000       3.802001       103.4577 
 171   0.0000       3.832004       104.2741 
 172   0.0000       3.865680       105.1905 
 173   0.0000       3.932147       106.9992 
 174   0.0000       3.973225       108.1169 
 175   0.0000       4.010094       109.1202 
 176   0.0000       4.042403       109.9994 
 177   0.0000       4.065416       110.6256 
 178   0.0000       4.111915       111.8909 
 179   0.0000       4.147069       112.8475 
 180   0.0000       4.168223       113.4231 
 181   0.0000       4.186218       113.9128 
 182   0.0000       4.284440       116.5855 
 183   0.0000       4.401068       119.7591 
 184   0.0000       4.450747       121.1110 
 185   0.0000       4.467096       121.5559 
 186   0.0000       4.551798       123.8607 
 187   0.0000       4.615418       125.5919 
 188   0.0000       4.710564       128.1810 
 189   0.0000       4.739504       128.9685 
 190   0.0000       4.754215       129.3688 
 191   0.0000       4.764644       129.6526 
 192   0.0000       4.902530       133.4046 
 193   0.0000       4.940030       134.4251 
 194   0.0000       4.973287       135.3300 
 195   0.0000       5.015886       136.4892 
 196   0.0000       5.141617       139.9105 
 197   0.0000       5.294306       144.0654 
 198   0.0000       5.349395       145.5644 
 199   0.0000       5.395010       146.8057 
 200   0.0000       5.480255       149.1253 
 201   0.0000       5.713220       155.4646 
 202   0.0000       6.057159       164.8237 
 203   0.0000       6.236522       169.7044 
 204   0.0000       6.298225       171.3834 
 205   0.0000       6.481018       176.3575 
 206   0.0000       6.860885       186.6942 
 207   0.0000       6.951165       189.1508 
 208   0.0000      11.888824       323.5114 
 209   0.0000      14.958374       407.0380 
 210   0.0000      22.888257       622.8211 
 211   0.0000      23.379521       636.1891 

                    ********************************
                    * MULLIKEN POPULATION ANALYSIS *
                    ********************************

--------------------------------------------
MULLIKEN ATOMIC CHARGES AND SPIN POPULATIONS
--------------------------------------------
   0 C :   -0.099054    0.074758
   1 H :   -0.011999    0.054865
   2 H :    0.092471    0.018111
   3 C :   -0.832924    0.115462
   4 H :    0.242652   -0.015561
   5 Si:    0.102690    0.697260
   6 H :   -0.242588    0.048340
   7 Li:    0.748751    0.006764
Sum of atomic charges         :    0.0000000
Sum of atomic spin populations:    1.0000000

-----------------------------------------------------
MULLIKEN REDUCED ORBITAL CHARGES AND SPIN POPULATIONS
-----------------------------------------------------
CHARGE
  0 C s       :     3.330184  s :     3.330184
      pz      :     0.981338  p :     2.728586
      px      :     0.913186
      py      :     0.834062
      dz2     :    -0.003169  d :     0.035883
      dxz     :     0.017139
      dyz     :    -0.005576
      dx2y2   :    -0.013574
      dxy     :     0.041062
      f0      :     0.000993  f :     0.004402
      f+1     :     0.000443
      f-1     :     0.000434
      f+2     :     0.000134
      f-2     :     0.000300
      f+3     :     0.001377
      f-3     :     0.000720
  1 H s       :     1.006421  s :     1.006421
      pz      :     0.002519  p :     0.004783
      px      :     0.002008
      py      :     0.000256
      dz2     :     0.000252  d :     0.000795
      dxz     :     0.000296
      dyz     :     0.000081
      dx2y2   :     0.000086
      dxy     :     0.000079
  2 H s       :     0.750460  s :     0.750460
      pz      :     0.044073  p :     0.154615
      px      :     0.032097
      py      :     0.078445
      dz2     :     0.000140  d :     0.002453
      dxz     :     0.000461
      dyz     :     0.000119
      dx2y2   :     0.001095
      dxy     :     0.000638
  3 C s       :     3.443989  s :     3.443989
      pz      :     0.725443  p :     3.298045
      px      :     1.055862
      py      :     1.516741
      dz2     :     0.008220  d :     0.087208
      dxz     :     0.036624
      dyz     :    -0.003741
      dx2y2   :     0.008974
      dxy     :     0.037132
      f0      :     0.000738  f :     0.003681
      f+1     :     0.000258
      f-1     :     0.000206
      f+2     :     0.000167
      f-2     :     0.000438
      f+3     :     0.001197
      f-3     :     0.000677
  4 H s       :     0.739545  s :     0.739545
      pz      :     0.001822  p :     0.015517
      px      :     0.003974
      py      :     0.009721
      dz2     :     0.000138  d :     0.002286
      dxz     :     0.000015
      dyz     :     0.000641
      dx2y2   :     0.000484
      dxy     :     0.001007
  5 Sis       :     5.494009  s :     5.494009
      pz      :     2.856779  p :     8.111528
      px      :     2.683275
      py      :     2.571474
      dz2     :     0.035085  d :     0.269449
      dxz     :     0.106261
      dyz     :     0.011148
      dx2y2   :     0.077338
      dxy     :     0.039617
      f0      :     0.002612  f :     0.022323
      f+1     :     0.003846
      f-1     :     0.002583
      f+2     :     0.002054
      f-2     :     0.001953
      f+3     :     0.005499
      f-3     :     0.003776
  6 H s       :     1.234821  s :     1.234821
      pz      :     0.008021  p :     0.007062
      px      :     0.000318
      py      :    -0.001277
      dz2     :     0.000163  d :     0.000704
      dxz     :     0.000020
      dyz     :     0.000141
      dx2y2   :     0.000162
      dxy     :     0.000219
  7 Lis       :     2.093750  s :     2.093750
      pz      :     0.018979  p :     0.132019
      px      :     0.056039
      py      :     0.057000
      dz2     :     0.005015  d :     0.025480
      dxz     :     0.001500
      dyz     :     0.003962
      dx2y2   :     0.011316
      dxy     :     0.003686

SPIN
  0 C s       :     0.006356  s :     0.006356
      pz      :    -0.014876  p :     0.023728
      px      :     0.026699
      py      :     0.011905
      dz2     :     0.000315  d :     0.044361
      dxz     :     0.012556
      dyz     :     0.000451
      dx2y2   :     0.012313
      dxy     :     0.018727
      f0      :     0.000057  f :     0.000313
      f+1     :     0.000013
      f-1     :     0.000011
      f+2     :     0.000011
      f-2     :     0.000133
      f+3     :     0.000097
      f-3     :    -0.000009
  1 H s       :     0.043490  s :     0.043490
      pz      :     0.005362  p :     0.011228
      px      :     0.003928
      py      :     0.001938
      dz2     :     0.000083  d :     0.000147
      dxz     :     0.000024
      dyz     :     0.000006
      dx2y2   :     0.000027
      dxy     :     0.000007
  2 H s       :     0.011543  s :     0.011543
      pz      :     0.005540  p :     0.006424
      px      :    -0.000326
      py      :     0.001210
      dz2     :    -0.000001  d :     0.000144
      dxz     :     0.000088
      dyz     :     0.000026
      dx2y2   :     0.000023
      dxy     :     0.000008
  3 C s       :    -0.003901  s :    -0.003901
      pz      :     0.100222  p :     0.119233
      px      :     0.005096
      py      :     0.013914
      dz2     :     0.000743  d :     0.000211
      dxz     :    -0.002963
      dyz     :    -0.000302
      dx2y2   :     0.002426
      dxy     :     0.000307
      f0      :    -0.000050  f :    -0.000080
      f+1     :    -0.000047
      f-1     :    -0.000023
      f+2     :    -0.000008
      f-2     :    -0.000007
      f+3     :     0.000071
      f-3     :    -0.000017
  4 H s       :    -0.012830  s :    -0.012830
      pz      :    -0.001235  p :    -0.002762
      px      :    -0.001573
      py      :     0.000046
      dz2     :     0.000002  d :     0.000030
      dxz     :     0.000006
      dyz     :    -0.000004
      dx2y2   :     0.000003
      dxy     :     0.000023
  5 Sis       :     0.152706  s :     0.152706
      pz      :     0.396495  p :     0.526630
      px      :     0.146071
      py      :    -0.015937
      dz2     :     0.000405  d :     0.018631
      dxz     :     0.018805
      dyz     :     0.000272
      dx2y2   :     0.000455
      dxy     :    -0.001306
      f0      :    -0.000137  f :    -0.000706
      f+1     :    -0.000258
      f-1     :    -0.000297
      f+2     :    -0.000157
      f-2     :     0.000070
      f+3     :    -0.000009
      f-3     :     0.000081
  6 H s       :     0.033240  s :     0.033240
      pz      :     0.006670  p :     0.014988
      px      :     0.008566
      py      :    -0.000248
      dz2     :    -0.000002  d :     0.000112
      dxz     :     0.000010
      dyz     :     0.000069
      dx2y2   :     0.000012
      dxy     :     0.000022
  7 Lis       :    -0.001467  s :    -0.001467
      pz      :    -0.000802  p :     0.006065
      px      :     0.006570
      py      :     0.000296
      dz2     :    -0.000056  d :     0.002166
      dxz     :     0.000660
      dyz     :     0.000567
      dx2y2   :     0.000977
      dxy     :     0.000018


                     *******************************
                     * LOEWDIN POPULATION ANALYSIS *
                     *******************************

-------------------------------------------
LOEWDIN ATOMIC CHARGES AND SPIN POPULATIONS
-------------------------------------------
   0 C :   -0.427837    0.101085
   1 H :   -0.161188    0.081836
   2 H :   -0.121801    0.018085
   3 C :   -0.145831    0.116063
   4 H :   -0.086225    0.000290
   5 Si:    0.701843    0.608350
   6 H :   -0.145097    0.066057
   7 Li:    0.386137    0.008235

----------------------------------------------------
LOEWDIN REDUCED ORBITAL CHARGES AND SPIN POPULATIONS
----------------------------------------------------
CHARGE
  0 C s       :     2.787033  s :     2.787033
      pz      :     0.822896  p :     2.852468
      px      :     1.050842
      py      :     0.978730
      dz2     :     0.063233  d :     0.761527
      dxz     :     0.095221
      dyz     :     0.033064
      dx2y2   :     0.324383
      dxy     :     0.245626
      f0      :     0.001301  f :     0.026810
      f+1     :     0.002617
      f-1     :     0.002844
      f+2     :     0.001195
      f-2     :     0.001939
      f+3     :     0.010944
      f-3     :     0.005970
  1 H s       :     0.932378  s :     0.932378
      pz      :     0.123257  p :     0.223279
      px      :     0.060900
      py      :     0.039122
      dz2     :     0.002024  d :     0.005531
      dxz     :     0.002070
      dyz     :     0.000527
      dx2y2   :     0.000502
      dxy     :     0.000408
  2 H s       :     0.750197  s :     0.750197
      pz      :     0.074597  p :     0.343205
      px      :     0.121317
      py      :     0.147290
      dz2     :     0.002625  d :     0.028399
      dxz     :     0.004271
      dyz     :     0.001662
      dx2y2   :     0.010688
      dxy     :     0.009153
  3 C s       :     2.859872  s :     2.859872
      pz      :     0.627225  p :     2.786526
      px      :     0.996147
      py      :     1.163154
      dz2     :     0.047688  d :     0.471698
      dxz     :     0.066983
      dyz     :     0.010620
      dx2y2   :     0.172006
      dxy     :     0.174402
      f0      :     0.001911  f :     0.027736
      f+1     :     0.003338
      f-1     :     0.001288
      f+2     :     0.000700
      f-2     :     0.003736
      f+3     :     0.009509
      f-3     :     0.007255
  4 H s       :     0.733373  s :     0.733373
      pz      :     0.091590  p :     0.324234
      px      :     0.085247
      py      :     0.147397
      dz2     :     0.002776  d :     0.028618
      dxz     :     0.000061
      dyz     :     0.007913
      dx2y2   :     0.008522
      dxy     :     0.009345
  5 Sis       :     4.699724  s :     4.699724
      pz      :     2.694612  p :     7.951038
      px      :     2.664566
      py      :     2.591860
      dz2     :     0.085703  d :     0.569479
      dxz     :     0.175812
      dyz     :     0.016905
      dx2y2   :     0.178557
      dxy     :     0.112502
      f0      :     0.006798  f :     0.077916
      f+1     :     0.011874
      f-1     :     0.008537
      f+2     :     0.005847
      f-2     :     0.007382
      f+3     :     0.022708
      f-3     :     0.014770
  6 H s       :     0.878729  s :     0.878729
      pz      :     0.065562  p :     0.261146
      px      :     0.078095
      py      :     0.117489
      dz2     :     0.000715  d :     0.005222
      dxz     :     0.000167
      dyz     :     0.001186
      dx2y2   :     0.001612
      dxy     :     0.001542
  7 Lis       :     2.104301  s :     2.104301
      pz      :     0.037455  p :     0.325247
      px      :     0.146960
      py      :     0.140832
      dz2     :     0.028191  d :     0.184316
      dxz     :     0.002927
      dyz     :     0.027857
      dx2y2   :     0.082804
      dxy     :     0.042536

SPIN
  0 C s       :     0.005354  s :     0.005354
      pz      :    -0.006820  p :     0.020437
      px      :     0.021543
      py      :     0.005714
      dz2     :     0.001599  d :     0.073236
      dxz     :     0.058276
      dyz     :     0.004757
      dx2y2   :     0.003705
      dxy     :     0.004900
      f0      :     0.000166  f :     0.002057
      f+1     :     0.000017
      f-1     :     0.000011
      f+2     :     0.000077
      f-2     :     0.000950
      f+3     :     0.000739
      f-3     :     0.000097
  1 H s       :     0.022210  s :     0.022210
      pz      :     0.049402  p :     0.058534
      px      :     0.008035
      py      :     0.001097
      dz2     :     0.000948  d :     0.001091
      dxz     :    -0.000012
      dyz     :     0.000016
      dx2y2   :     0.000101
      dxy     :     0.000037
  2 H s       :     0.006476  s :     0.006476
      pz      :     0.007646  p :     0.010378
      px      :     0.001599
      py      :     0.001132
      dz2     :     0.000031  d :     0.001231
      dxz     :     0.000765
      dyz     :     0.000304
      dx2y2   :     0.000056
      dxy     :     0.000074
  3 C s       :     0.005255  s :     0.005255
      pz      :     0.076647  p :     0.099645
      px      :     0.007674
      py      :     0.015324
      dz2     :     0.000765  d :     0.010921
      dxz     :    -0.001950
      dyz     :    -0.000454
      dx2y2   :     0.007295
      dxy     :     0.005264
      f0      :    -0.000165  f :     0.000242
      f+1     :    -0.000039
      f-1     :     0.000000
      f+2     :    -0.000049
      f-2     :     0.000004
      f+3     :     0.000483
      f-3     :     0.000009
  4 H s       :     0.000651  s :     0.000651
      pz      :    -0.003165  p :    -0.000501
      px      :     0.001590
      py      :     0.001074
      dz2     :     0.000011  d :     0.000140
      dxz     :     0.000010
      dyz     :    -0.000082
      dx2y2   :     0.000032
      dxy     :     0.000168
  5 Sis       :     0.069753  s :     0.069753
      pz      :     0.324428  p :     0.486191
      px      :     0.153471
      py      :     0.008291
      dz2     :     0.001184  d :     0.048526
      dxz     :     0.045304
      dyz     :    -0.000482
      dx2y2   :     0.002729
      dxy     :    -0.000210
      f0      :     0.000248  f :     0.003880
      f+1     :     0.000741
      f-1     :    -0.000188
      f+2     :    -0.000064
      f-2     :     0.000589
      f+3     :     0.000855
      f-3     :     0.001699
  6 H s       :     0.008955  s :     0.008955
      pz      :     0.031501  p :     0.056051
      px      :     0.015475
      py      :     0.009075
      dz2     :    -0.000002  d :     0.001051
      dxz     :     0.000118
      dyz     :     0.000641
      dx2y2   :    -0.000001
      dxy     :     0.000296
  7 Lis       :    -0.003146  s :    -0.003146
      pz      :     0.000322  p :     0.006477
      px      :     0.003885
      py      :     0.002270
      dz2     :     0.000347  d :     0.004904
      dxz     :     0.002179
      dyz     :     0.001136
      dx2y2   :     0.000968
      dxy     :     0.000273


                      *****************************
                      * MAYER POPULATION ANALYSIS *
                      *****************************

  NA   - Mulliken gross atomic population
  ZA   - Total nuclear charge
  QA   - Mulliken gross atomic charge
  VA   - Mayer's total valence
  BVA  - Mayer's bonded valence
  FA   - Mayer's free valence

  ATOM       NA         ZA         QA         VA         BVA        FA
  0 C      6.0991     6.0000    -0.0991     3.3535     3.3513     0.0021
  1 H      1.0120     1.0000    -0.0120     0.9790     0.9781     0.0009
  2 H      0.9075     1.0000     0.0925     1.3064     1.3062     0.0002
  3 C      6.8329     6.0000    -0.8329     3.2319     3.2118     0.0202
  4 H      0.7573     1.0000     0.2427     0.9266     0.9265     0.0001
  5 Si    13.8973    14.0000     0.1027     3.6215     3.0086     0.6130
  6 H      1.2426     1.0000    -0.2426     0.9071     0.9075    -0.0004
  7 Li     2.2512     3.0000     0.7488     0.5071     0.5070     0.0002

  Mayer bond orders larger than 0.100000
B(  0-C ,  3-C ) :   1.3796 B(  0-C ,  4-H ) :   0.9552 B(  0-C ,  5-Si) :   1.0040 
B(  1-H ,  5-Si) :   0.9593 B(  2-H ,  3-C ) :   1.2024 B(  3-C ,  5-Si) :   0.2632 
B(  3-C ,  7-Li) :   0.2706 B(  5-Si,  6-H ) :   0.7201 B(  6-H ,  7-Li) :   0.1326 


-------
TIMINGS
-------

Total SCF time: 0 days 0 hours 0 min 9 sec 

Total time                  ....       9.325 sec
Sum of individual times     ....       8.996 sec  ( 96.5%)

Fock matrix formation       ....       8.348 sec  ( 89.5%)
  XC integration            ....       1.150 sec  ( 13.8% of F)
    Basis function eval.    ....       0.073 sec  (  6.4% of XC)
    Density eval.           ....       0.235 sec  ( 20.4% of XC)
    XC-Functional eval.     ....       0.034 sec  (  3.0% of XC)
    XC-Potential eval.      ....       0.506 sec  ( 44.0% of XC)
Diagonalization             ....       0.154 sec  (  1.6%)
Density matrix formation    ....       0.017 sec  (  0.2%)
Population analysis         ....       0.015 sec  (  0.2%)
Initial guess               ....       0.126 sec  (  1.4%)
Orbital Transformation      ....       0.000 sec  (  0.0%)
Orbital Orthonormalization  ....       0.000 sec  (  0.0%)
DIIS solution               ....       0.052 sec  (  0.6%)
Grid generation             ....       0.284 sec  (  3.0%)

-------------------------   --------------------
FINAL SINGLE POINT ENERGY      -375.495456642609
-------------------------   --------------------


                            ***************************************
                            *     ORCA property calculations      *
                            ***************************************

                                    ---------------------
                                    Active property flags
                                    ---------------------
   (+) Dipole Moment


------------------------------------------------------------------------------
                       ORCA ELECTRIC PROPERTIES CALCULATION
------------------------------------------------------------------------------

Dipole Moment Calculation                       ... on
Quadrupole Moment Calculation                   ... off
Polarizability Calculation                      ... off
GBWName                                         ... 104.gbw
Electron density file                           ... 104.scfp
The origin for moment calculation is the CENTER OF MASS  = (-0.500057, -0.135647 -0.285939)

-------------
DIPOLE MOMENT
-------------
                                X             Y             Z
Electronic contribution:      1.18990      -4.38780      -1.19028
Nuclear contribution   :     -0.90522       2.81558       1.17165
                        -----------------------------------------
Total Dipole Moment    :      0.28468      -1.57222      -0.01863
                        -----------------------------------------
Magnitude (a.u.)       :      1.59789
Magnitude (Debye)      :      4.06152



--------------------
Rotational spectrum 
--------------------
 
Rotational constants in cm-1:     0.419182     0.179284     0.128388 
Rotational constants in MHz : 12566.751634  5374.809128  3848.967152 

 Dipole components along the rotational axes: 
x,y,z [a.u.] :     0.284797     1.572199    -0.018635 
x,y,z [Debye]:     0.723898     3.996212    -0.047365 

 

Timings for individual modules:

Sum of individual times         ...       10.633 sec (=   0.177 min)
GTO integral calculation        ...        0.845 sec (=   0.014 min)   7.9 %
SCF iterations                  ...        9.788 sec (=   0.163 min)  92.1 %
                             ****ORCA TERMINATED NORMALLY****
TOTAL RUN TIME: 0 days 0 hours 0 minutes 11 seconds 248 msec
