
                                 *****************
                                 * O   R   C   A *
                                 *****************

           --- An Ab Initio, DFT and Semiempirical electronic structure package ---

                  #######################################################
                  #                        -***-                        #
                  #          Department of theory and spectroscopy      #
                  #               Directorship: Frank Neese             #
                  #        Max Planck Institute fuer Kohlenforschung    #
                  #                Kaiser Wilhelm Platz 1               #
                  #                 D-45470 Muelheim/Ruhr               #
                  #                      Germany                        #
                  #                                                     #
                  #                  All rights reserved                #
                  #                        -***-                        #
                  #######################################################


                         Program Version 4.2.0 -  RELEASE  -


 With contributions from (in alphabetic order):
   Daniel Aravena         : Magnetic Suceptibility
   Michael Atanasov       : Ab Initio Ligand Field Theory (pilot matlab implementation)
   Alexander A. Auer      : GIAO ZORA, VPT2
   Ute Becker             : Parallelization
   Giovanni Bistoni       : ED, misc. LED, open-shell LED, HFLED
   Martin Brehm           : Molecular dynamics
   Dmytro Bykov           : SCF Hessian
   Vijay G. Chilkuri      : MRCI spin determinant printing, contributions to CSF-ICE
   Dipayan Datta          : RHF DLPNO-CCSD density
   Achintya Kumar Dutta   : EOM-CC, STEOM-CC
   Dmitry Ganyushin       : Spin-Orbit,Spin-Spin,Magnetic field MRCI
   Miquel Garcia          : C-PCM Hessian, Gaussian charge scheme
   Yang Guo               : DLPNO-NEVPT2, CIM, IAO-localization
   Andreas Hansen         : Spin unrestricted coupled pair/coupled cluster methods
   Benjamin Helmich-Paris : CASSCF linear response (MC-RPA)
   Lee Huntington         : MR-EOM, pCC
   Robert Izsak           : Overlap fitted RIJCOSX, COSX-SCS-MP3, EOM
   Christian Kollmar      : KDIIS, OOCD, Brueckner-CCSD(T), CCSD density
   Simone Kossmann        : Meta GGA functionals, TD-DFT gradient, OOMP2, MP2 Hessian
   Martin Krupicka        : AUTO-CI
   Lucas Lang             : DCDCAS
   Dagmar Lenk            : GEPOL surface, SMD
   Dimitrios Liakos       : Extrapolation schemes; Compound Job, initial MDCI parallelization
   Dimitrios Manganas     : Further ROCIS development; embedding schemes
   Dimitrios Pantazis     : SARC Basis sets
   Taras Petrenko         : DFT Hessian,TD-DFT gradient, ASA, ECA, R-Raman, ABS, FL, XAS/XES, NRVS
   Peter Pinski           : DLPNO-MP2, DLPNO-MP2 Gradient
   Christoph Reimann      : Effective Core Potentials
   Marius Retegan         : Local ZFS, SOC
   Christoph Riplinger    : Optimizer, TS searches, QM/MM, DLPNO-CCSD(T), (RO)-DLPNO pert. Triples
   Tobias Risthaus        : Range-separated hybrids, TD-DFT gradient, RPA, STAB
   Michael Roemelt        : Original ROCIS implementation
   Masaaki Saitow         : Open-shell DLPNO-CCSD energy and density
   Barbara Sandhoefer     : DKH picture change effects
   Avijit Sen             : IP-ROCIS
   Kantharuban Sivalingam : CASSCF convergence, NEVPT2, FIC-MRCI
   Bernardo de Souza      : ESD, SOC TD-DFT
   Georgi Stoychev        : AutoAux, RI-MP2 NMR
   Willem Van den Heuvel  : Paramagnetic NMR
   Boris Wezisla          : Elementary symmetry handling
   Frank Wennmohs         : Technical directorship


 We gratefully acknowledge several colleagues who have allowed us to
 interface, adapt or use parts of their codes:
   Stefan Grimme, W. Hujo, H. Kruse,             : VdW corrections, initial TS optimization,
                  C. Bannwarth                     DFT functionals, gCP, sTDA/sTD-DF
   Ed Valeev, F. Pavosevic, A. Kumar             : LibInt (2-el integral package), F12 methods
   Garnet Chan, S. Sharma, J. Yang, R. Olivares  : DMRG
   Ulf Ekstrom                                   : XCFun DFT Library
   Mihaly Kallay                                 : mrcc  (arbitrary order and MRCC methods)
   Andreas Klamt, Michael Diedenhofen            : otool_cosmo (COSMO solvation model)
   Jiri Pittner, Ondrej Demel                    : Mk-CCSD
   Frank Weinhold                                : gennbo (NPA and NBO analysis)
   Christopher J. Cramer and Donald G. Truhlar   : smd solvation model
   Lars Goerigk                                  : TD-DFT with DH, B97 family of functionals
   V. Asgeirsson, H. Jonsson                     : NEB implementation
   FAccTs GmbH                                   : IRC, NEB, NEB-TS, Multilevel, MM, QM/MM, CI optimization
   S Lehtola, MJT Oliveira, MAL Marques          : LibXC Library


 Your calculation uses the libint2 library for the computation of 2-el integrals
 For citations please refer to: http://libint.valeyev.net

 Your ORCA version has been built with support for libXC version: 4.2.3
 For citations please refer to: https://tddft.org/programs/libxc/

 This ORCA versions uses:
   CBLAS   interface :  Fast vector & matrix operations
   LAPACKE interface :  Fast linear algebra routines
   SCALAPACK package :  Parallel linear algebra routines


Your calculation utilizes the DFT-NL dispersion correction.
Cite in your paper:
Vydrov, O. A.; Van Voorhis, T. J. Chem. Phys. 2010, 133, 244103
Hujo, W.; Grimme, S. J. Chem. Theory Comput. 2011, 7, 3866 
   

----- Orbital basis set information -----
Your calculation utilizes the basis: def2-TZVPPD
   F. Weigend and R. Ahlrichs, Phys. Chem. Chem. Phys. 7, 3297 (2005).
   D. Rappoport and F. Furche, J. Chem. Phys. 133 134105 (2010).

----- AuxJK basis set information -----
Your calculation utilizes the auxiliary basis: def2/JK
   H-Ba, Hf-Rn: F. Weigend, J. Comput. Chem. 29, 167 (2008).

================================================================================
                                        WARNINGS
                       Please study these warnings very carefully!
================================================================================


WARNING: your system is open-shell and RHF/RKS was chosen
  ===> : WILL SWITCH to UHF/UKS


INFO   : the flag for use of LIBINT has been found!

================================================================================
                                       INPUT FILE
================================================================================
NAME = 123.in
|  1> #
|  2> # 123 wB97M-V/Def2-TZVPPD
|  3> #
|  4> ! wb97m-v def2-tzvppd def2/jk grid4 nofinalgrid
|  5> 
|  6> *xyz 0 2
|  7> H         -0.05566       -1.00378        1.35004
|  8> H         -0.85108        0.57288        1.07820
|  9> C          0.00090       -0.05557        0.78344
| 10> H         -0.84105       -0.66759       -1.01558
| 11> H          0.91403        0.47335        1.08996
| 12> H          0.01842        1.61333       -1.60506
| 13> H          0.81267       -0.72579       -1.00914
| 14> N          0.00176       -0.20682       -0.67186
| 15> *
| 16> 
| 17> %maxcore 5000
| 18> 
| 19> %pal
| 20> nprocs = 24
| 21> end
| 22> 
| 23> 
| 24>                          ****END OF INPUT****
================================================================================

                       ****************************
                       * Single Point Calculation *
                       ****************************

---------------------------------
CARTESIAN COORDINATES (ANGSTROEM)
---------------------------------
  H     -0.055660   -1.003780    1.350040
  H     -0.851080    0.572880    1.078200
  C      0.000900   -0.055570    0.783440
  H     -0.841050   -0.667590   -1.015580
  H      0.914030    0.473350    1.089960
  H      0.018420    1.613330   -1.605060
  H      0.812670   -0.725790   -1.009140
  N      0.001760   -0.206820   -0.671860

----------------------------
CARTESIAN COORDINATES (A.U.)
----------------------------
  NO LB      ZA    FRAG     MASS         X           Y           Z
   0 H     1.0000    0     1.008   -0.105182   -1.896869    2.551206
   1 H     1.0000    0     1.008   -1.608308    1.082586    2.037503
   2 C     6.0000    0    12.011    0.001701   -0.105012    1.480487
   3 H     1.0000    0     1.008   -1.589354   -1.261562   -1.919168
   4 H     1.0000    0     1.008    1.727266    0.894502    2.059726
   5 H     1.0000    0     1.008    0.034809    3.048752   -3.033124
   6 H     1.0000    0     1.008    1.535724   -1.371544   -1.906998
   7 N     7.0000    0    14.007    0.003326   -0.390833   -1.269631

--------------------------------
INTERNAL COORDINATES (ANGSTROEM)
--------------------------------
 H      0   0   0     0.000000000000     0.00000000     0.00000000
 H      1   0   0     1.786741928091     0.00000000     0.00000000
 C      2   1   0     1.098955313241    36.00687967     0.00000000
 H      3   2   1     2.078442023079    94.96235184   102.03919305
 H      3   2   1     1.098870908569   107.10659450   243.54424698
 H      4   3   2     2.507742290926    78.27591057    79.73626460
 H      4   3   2     1.654756342185    66.55644743   154.98275484
 N      7   4   3     1.020128760206    35.80452640   324.43929458

---------------------------
INTERNAL COORDINATES (A.U.)
---------------------------
 H      0   0   0     0.000000000000     0.00000000     0.00000000
 H      1   0   0     3.376452916087     0.00000000     0.00000000
 C      2   1   0     2.076724575443    36.00687967     0.00000000
 H      3   2   1     3.927686208852    94.96235184   102.03919305
 H      3   2   1     2.076565073729   107.10659450   243.54424698
 H      4   3   2     4.738946144303    78.27591057    79.73626460
 H      4   3   2     3.127036305098    66.55644743   154.98275484
 N      7   4   3     1.927763978126    35.80452640   324.43929458

---------------------
BASIS SET INFORMATION
---------------------
There are 3 groups of distinct atoms

 Group   1 Type H   : 5s3p1d contracted to 3s3p1d pattern {311/111/1}
 Group   2 Type C   : 12s6p3d1f contracted to 6s3p3d1f pattern {621111/411/111/1}
 Group   3 Type N   : 12s6p3d1f contracted to 6s3p3d1f pattern {621111/411/111/1}

Atom   0H    basis set group =>   1
Atom   1H    basis set group =>   1
Atom   2C    basis set group =>   2
Atom   3H    basis set group =>   1
Atom   4H    basis set group =>   1
Atom   5H    basis set group =>   1
Atom   6H    basis set group =>   1
Atom   7N    basis set group =>   3
----------------------------------
AUXILIARY/JK BASIS SET INFORMATION
----------------------------------
There are 3 groups of distinct atoms

 Group   1 Type H   : 4s2p2d contracted to 2s2p2d pattern {31/11/11}
 Group   2 Type C   : 14s10p6d2f1g contracted to 10s8p5d1f1g pattern {5111111111/31111111/21111/2/1}
 Group   3 Type N   : 14s10p6d2f1g contracted to 10s8p4d2f1g pattern {5111111111/31111111/3111/11/1}

Atom   0H    basis set group =>   1
Atom   1H    basis set group =>   1
Atom   2C    basis set group =>   2
Atom   3H    basis set group =>   1
Atom   4H    basis set group =>   1
Atom   5H    basis set group =>   1
Atom   6H    basis set group =>   1
Atom   7N    basis set group =>   3


           ************************************************************
           *        Program running with 24 parallel MPI-processes    *
           *              working on a common directory               *
           ************************************************************
------------------------------------------------------------------------------
                           ORCA GTO INTEGRAL CALCULATION
------------------------------------------------------------------------------

                         BASIS SET STATISTICS AND STARTUP INFO

 # of primitive gaussian shells          ...   98
 # of primitive gaussian functions       ...  218
 # of contracted shells                  ...   68
 # of contracted basis functions         ...  176
 Highest angular momentum                ...    3
 Maximum contraction depth               ...    6
 Integral package used                   ... LIBINT
 Integral threshhold            Thresh   ...  1.000e-10
 Primitive cut-off              TCut     ...  1.000e-11


------------------------------ INTEGRAL EVALUATION ----------------------------


 * One electron integrals 
 Pre-screening matrix                    ... done
 Shell pair data                         ... done (   0.001 sec)



           ************************************************************
           *        Program running with 24 parallel MPI-processes    *
           *              working on a common directory               *
           ************************************************************
-------------------------------------------------------------------------------
                                 ORCA SCF
-------------------------------------------------------------------------------

------------
SCF SETTINGS
------------
Hamiltonian:
 Density Functional     Method          .... DFT(GTOs)
 Exchange Functional    Exchange        .... WB97M-V
 Correlation Functional Correlation     .... WB97M-V
 Gradients option       PostSCFGGA      .... off
 Hybrid DFT is turned on
   Fraction HF Exchange ScalHFX         ....  0.150000
   Scaling of DF-GGA-X  ScalDFX         ....  0.000000
   Scaling of DF-GGA-C  ScalDFC         ....  1.000000
   Scaling of DF-LDA-C  ScalLDAC        ....  1.000000
   Perturbative correction              ....  0.000000
   Density functional embedding theory  .... OFF
 Long-range corrected/Screened/Range-Separated Hybrid DFT is turned on
   Amount of maximum screened exact exchange              ....  0.850000
   Range separation parameter mu (erf(mu*r12)/r12)        ....  0.300000
   NL short-range parameter             ....  6.000000
   NL long-range parameter              ....  0.010000


General Settings:
 Integral files         IntName         .... 123
 Hartree-Fock type      HFTyp           .... UHF
 Total Charge           Charge          ....    0
 Multiplicity           Mult            ....    2
 Number of Electrons    NEL             ....   19
 Basis Dimension        Dim             ....  176
 Nuclear Repulsion      ENuc            ....     45.6194448278 Eh

Convergence Acceleration:
 DIIS                   CNVDIIS         .... on
   Start iteration      DIISMaxIt       ....    12
   Startup error        DIISStart       ....  0.200000
   # of expansion vecs  DIISMaxEq       ....     5
   Bias factor          DIISBfac        ....   1.050
   Max. coefficient     DIISMaxC        ....  10.000
 Newton-Raphson         CNVNR           .... off
 SOSCF                  CNVSOSCF        .... off
 Level Shifting         CNVShift        .... on
   Level shift para.    LevelShift      ....    0.2500
   Turn off err/grad.   ShiftErr        ....    0.0010
 Zerner damping         CNVZerner       .... off
 Static damping         CNVDamp         .... on
   Fraction old density DampFac         ....    0.7000
   Max. Damping (<1)    DampMax         ....    0.9800
   Min. Damping (>=0)   DampMin         ....    0.0000
   Turn off err/grad.   DampErr         ....    0.1000
 Fernandez-Rico         CNVRico         .... off

SCF Procedure:
 Maximum # iterations   MaxIter         ....   125
 SCF integral mode      SCFMode         .... Direct
   Integral package                     .... LIBINT
 Reset frequency        DirectResetFreq ....    20
 Integral Threshold     Thresh          ....  1.000e-10 Eh
 Primitive CutOff       TCut            ....  1.000e-11 Eh

Convergence Tolerance:
 Convergence Check Mode ConvCheckMode   .... Total+1el-Energy
 Convergence forced     ConvForced      .... 0
 Energy Change          TolE            ....  1.000e-06 Eh
 1-El. energy change                    ....  1.000e-03 Eh
 DIIS Error             TolErr          ....  1.000e-06


Diagonalization of the overlap matrix:
Smallest eigenvalue                        ... 2.946e-05
Time for diagonalization                   ...    0.005 sec
Threshold for overlap eigenvalues          ... 1.000e-08
Number of eigenvalues below threshold      ... 0
Time for construction of square roots      ...    0.003 sec
Total time needed                          ...    0.009 sec

-------------------
DFT GRID GENERATION
-------------------

General Integration Accuracy     IntAcc      ...  4.670
Radial Grid Type                 RadialGrid  ... Gauss-Chebyshev
Angular Grid (max. acc.)         AngularGrid ... Lebedev-302
Angular grid pruning method      GridPruning ... 3 (G Style)
Weight generation scheme         WeightScheme... Becke
Basis function cutoff            BFCut       ...    1.0000e-10
Integration weight cutoff        WCut        ...    1.0000e-14
Grids for H and He will be reduced by one unit

# of grid points (after initial pruning)     ...  32788 (   0.0 sec)
# of grid points (after weights+screening)   ...  31357 (   0.0 sec)
nearest neighbour list constructed           ...    0.0 sec
Grid point re-assignment to atoms done       ...    0.0 sec
Grid point division into batches done        ...    0.1 sec
Reduced shell lists constructed in    0.1 sec

Total number of grid points                  ...    31357
Total number of batches                      ...      493
Average number of points per batch           ...       63
Average number of grid points per atom       ...     3920
Average number of shells per batch           ...    31.41 (46.19%)
Average number of basis functions per batch  ...    76.59 (43.52%)
Average number of large shells per batch     ...    23.68 (75.40%)
Average number of large basis fcns per batch ...    57.59 (75.19%)
Maximum spatial batch extension              ...  16.67, 14.98, 15.89 au
Average spatial batch extension              ...   0.35,  0.34,  0.32 au

Time for grid setup =    0.212 sec

------------------------------
INITIAL GUESS: MODEL POTENTIAL
------------------------------
Loading Hartree-Fock densities                     ... done
Calculating cut-offs                               ... done
Setting up the integral package                    ... done
Initializing the effective Hamiltonian             ... done
Starting the Coulomb interaction                   ... done (   0.0 sec)
Reading the grid                                   ... done
Mapping shells                                     ... done
Starting the XC term evaluation                    ... done (   0.0 sec)
  promolecular density results
     # of electrons  =     18.997134359
     EX              =    -13.363204295
     EC              =     -0.584883234
     EX+EC           =    -13.948087529
Transforming the Hamiltonian                       ... done (   0.0 sec)
Diagonalizing the Hamiltonian                      ... done (   0.0 sec)
Back transforming the eigenvectors                 ... done (   0.0 sec)
Now organizing SCF variables                       ... done
                      ------------------
                      INITIAL GUESS DONE (   0.3 sec)
                      ------------------
--------------
SCF ITERATIONS
--------------
ITER       Energy         Delta-E        Max-DP      RMS-DP      [F,P]     Damp
               ***  Starting incremental Fock matrix formation  ***
  0    -96.2965980887   0.000000000000 0.02200588  0.00068307  0.2479447 0.7000
  1    -96.3441031725  -0.047505083786 0.02325876  0.00060335  0.1295879 0.7000
                               ***Turning on DIIS***
  2    -96.3659066344  -0.021803461962 0.04882267  0.00134741  0.0531674 0.0000
  3    -96.3997338218  -0.033827187353 0.01852898  0.00028273  0.0633389 0.0000
  4    -96.4068713324  -0.007137510633 0.00528058  0.00008334  0.0068191 0.0000
  5    -96.4071599564  -0.000288623977 0.00323542  0.00004758  0.0033351 0.0000
  6    -96.4072668441  -0.000106887689 0.00456380  0.00004290  0.0019188 0.0000
  7    -96.4073373155  -0.000070471420 0.00569910  0.00004662  0.0011867 0.0000
  8    -96.4073877092  -0.000050393710 0.00804208  0.00006524  0.0006292 0.0000
  9    -96.4074285716  -0.000040862359 0.00222730  0.00001809  0.0001480 0.0000
 10    -96.4074368968  -0.000008325261 0.00043809  0.00000385  0.0000333 0.0000
 11    -96.4074382074  -0.000001310514 0.00017910  0.00000142  0.0000149 0.0000
                 **** Energy Check signals convergence ****

               *****************************************************
               *                     SUCCESS                       *
               *           SCF CONVERGED AFTER  12 CYCLES          *
               *****************************************************


Setting up the DFT-NL grid :

General Integration Accuracy     IntAcc      ...  4.340
Radial Grid Type                 RadialGrid  ... Gauss-Chebyshev
Angular Grid (max. acc.)         AngularGrid ... Lebedev-110
Angular grid pruning method      GridPruning ... 3 (G Style)
Weight generation scheme         WeightScheme... Becke
Basis function cutoff            BFCut       ...    1.0000e-10
Integration weight cutoff        WCut        ...    1.0000e-14
Grids for H and He will be reduced by one unit

# of grid points (after initial pruning)     ...   8122 (   0.0 sec)
# of grid points (after weights+screening)   ...   7845 (   0.0 sec)
nearest neighbour list constructed           ...    0.0 sec
Grid point re-assignment to atoms done       ...    0.0 sec
Grid point division into batches done        ...    0.0 sec
Reduced shell lists constructed in    0.0 sec

Total number of grid points                  ...     7845
Total number of batches                      ...      125
Average number of points per batch           ...       62
Average number of grid points per atom       ...      981
Average number of shells per batch           ...    41.14 (60.50%)
Average number of basis functions per batch  ...   104.86 (59.58%)
Average number of large shells per batch     ...    31.71 (77.08%)
Average number of large basis fcns per batch ...    78.86 (75.20%)
Maximum spatial batch extension              ...  15.95, 15.82, 17.48 au
Average spatial batch extension              ...   0.50,  0.49,  0.55 au

Final grid set up in    0.0 sec

-------------------------------------------------------------------------------
                         DFT-NL dispersion correction                          
-------------------------------------------------------------------------------

SC Energy -96.407438786 
NL    Energy 0.076213559 
SC+NL Energy -96.331225226 
NL done in    0.0 sec
-------------------------------------------------------------------------------

----------------
TOTAL SCF ENERGY
----------------

Total Energy       :          -96.33122523 Eh           -2621.30590 eV

Components:
Nuclear Repulsion  :           45.61944483 Eh            1241.36820 eV
Electronic Energy  :         -141.95067005 Eh           -3862.67411 eV
One Electron Energy:         -218.98897275 Eh           -5958.99290 eV
Two Electron Energy:           77.03830270 Eh            2096.31879 eV

Virial components:
Potential Energy   :         -192.27029554 Eh           -5231.94073 eV
Kinetic Energy     :           95.93907032 Eh            2610.63483 eV
Virial Ratio       :            2.00408754


DFT components:
N(Alpha)           :       10.000030297889 electrons
N(Beta)            :        9.000023110443 electrons
N(Total)           :       19.000053408332 electrons
E(X)               :       -9.401368792578 Eh       
E(C)               :       -0.527752926897 Eh       
NL Energy, E(C,NL) :        0.076213559499 Eh       
E(XC)              :       -9.852908159976 Eh       
DFET-embed. en.    :        0.000000000000 Eh       

---------------
SCF CONVERGENCE
---------------

  Last Energy change         ...   -5.7829e-07  Tolerance :   1.0000e-06
  Last MAX-Density change    ...    7.6043e-05  Tolerance :   1.0000e-05
  Last RMS-Density change    ...    8.3885e-07  Tolerance :   1.0000e-06
  Last DIIS Error            ...    4.7716e-06  Tolerance :   1.0000e-06

             **** THE GBW FILE WAS UPDATED (123.gbw) ****
             **** DENSITY FILE WAS UPDATED (123.scfp) ****
             **** ENERGY FILE WAS UPDATED (123.en.tmp) ****
----------------------
UHF SPIN CONTAMINATION
----------------------

Warning: in a DFT calculation there is little theoretical justification to 
         calculate <S**2> as in Hartree-Fock theory. We will do it anyways
         but you should keep in mind that the values have only limited relevance

Expectation value of <S**2>     :     0.755228
Ideal value S*(S+1) for S=0.5   :     0.750000
Deviation                       :     0.005228

             **** THE GBW FILE WAS UPDATED (123.gbw) ****
             **** DENSITY FILE WAS UPDATED (123.scfp) ****
----------------
ORBITAL ENERGIES
----------------
                 SPIN UP ORBITALS
  NO   OCC          E(Eh)            E(eV) 
   0   1.0000     -14.516721      -395.0201 
   1   1.0000     -10.374423      -282.3024 
   2   1.0000      -1.021787       -27.8042 
   3   1.0000      -0.793413       -21.5899 
   4   1.0000      -0.620115       -16.8742 
   5   1.0000      -0.565159       -15.3787 
   6   1.0000      -0.529432       -14.4066 
   7   1.0000      -0.483232       -13.1494 
   8   1.0000      -0.409889       -11.1536 
   9   1.0000      -0.289077        -7.8662 
  10   0.0000       0.041287         1.1235 
  11   0.0000       0.063690         1.7331 
  12   0.0000       0.094645         2.5754 
  13   0.0000       0.115285         3.1371 
  14   0.0000       0.132065         3.5937 
  15   0.0000       0.136996         3.7279 
  16   0.0000       0.162409         4.4194 
  17   0.0000       0.164117         4.4659 
  18   0.0000       0.192471         5.2374 
  19   0.0000       0.209774         5.7082 
  20   0.0000       0.210889         5.7386 
  21   0.0000       0.225283         6.1303 
  22   0.0000       0.243712         6.6317 
  23   0.0000       0.244708         6.6588 
  24   0.0000       0.263213         7.1624 
  25   0.0000       0.280198         7.6246 
  26   0.0000       0.288882         7.8609 
  27   0.0000       0.315405         8.5826 
  28   0.0000       0.316743         8.6190 
  29   0.0000       0.329524         8.9668 
  30   0.0000       0.334120         9.0919 
  31   0.0000       0.342364         9.3162 
  32   0.0000       0.349159         9.5011 
  33   0.0000       0.360134         9.7997 
  34   0.0000       0.367725        10.0063 
  35   0.0000       0.371998        10.1226 
  36   0.0000       0.418610        11.3910 
  37   0.0000       0.418851        11.3975 
  38   0.0000       0.427999        11.6465 
  39   0.0000       0.431789        11.7496 
  40   0.0000       0.455647        12.3988 
  41   0.0000       0.462287        12.5795 
  42   0.0000       0.509097        13.8532 
  43   0.0000       0.533161        14.5081 
  44   0.0000       0.552433        15.0325 
  45   0.0000       0.556127        15.1330 
  46   0.0000       0.590391        16.0653 
  47   0.0000       0.620243        16.8777 
  48   0.0000       0.640000        17.4153 
  49   0.0000       0.646982        17.6053 
  50   0.0000       0.662489        18.0272 
  51   0.0000       0.732657        19.9366 
  52   0.0000       0.747378        20.3372 
  53   0.0000       0.753568        20.5056 
  54   0.0000       0.772635        21.0245 
  55   0.0000       0.786818        21.4104 
  56   0.0000       0.828576        22.5467 
  57   0.0000       0.883976        24.0542 
  58   0.0000       0.924676        25.1617 
  59   0.0000       0.935107        25.4455 
  60   0.0000       0.943622        25.6773 
  61   0.0000       0.990655        26.9571 
  62   0.0000       0.993416        27.0322 
  63   0.0000       1.048035        28.5185 
  64   0.0000       1.060509        28.8579 
  65   0.0000       1.092867        29.7384 
  66   0.0000       1.142494        31.0888 
  67   0.0000       1.170899        31.8618 
  68   0.0000       1.179220        32.0882 
  69   0.0000       1.216748        33.1094 
  70   0.0000       1.237906        33.6851 
  71   0.0000       1.246120        33.9087 
  72   0.0000       1.311022        35.6747 
  73   0.0000       1.333872        36.2965 
  74   0.0000       1.340848        36.4863 
  75   0.0000       1.393791        37.9270 
  76   0.0000       1.418065        38.5875 
  77   0.0000       1.455661        39.6106 
  78   0.0000       1.506512        40.9943 
  79   0.0000       1.545316        42.0502 
  80   0.0000       1.566844        42.6360 
  81   0.0000       1.655240        45.0414 
  82   0.0000       1.665964        45.3332 
  83   0.0000       1.761423        47.9308 
  84   0.0000       1.775099        48.3029 
  85   0.0000       1.807806        49.1929 
  86   0.0000       1.867596        50.8199 
  87   0.0000       1.910565        51.9891 
  88   0.0000       1.912681        52.0467 
  89   0.0000       2.140988        58.2592 
  90   0.0000       2.236105        60.8475 
  91   0.0000       2.365702        64.3740 
  92   0.0000       2.475433        67.3600 
  93   0.0000       2.527456        68.7756 
  94   0.0000       2.623568        71.3909 
  95   0.0000       2.712924        73.8224 
  96   0.0000       2.723446        74.1087 
  97   0.0000       2.754699        74.9592 
  98   0.0000       2.766600        75.2830 
  99   0.0000       2.886306        78.5404 
 100   0.0000       2.907289        79.1114 
 101   0.0000       2.962275        80.6076 
 102   0.0000       2.971890        80.8692 
 103   0.0000       3.005380        81.7805 
 104   0.0000       3.048112        82.9433 
 105   0.0000       3.063674        83.3668 
 106   0.0000       3.114299        84.7444 
 107   0.0000       3.144872        85.5763 
 108   0.0000       3.202770        87.1518 
 109   0.0000       3.208403        87.3051 
 110   0.0000       3.247071        88.3573 
 111   0.0000       3.268748        88.9471 
 112   0.0000       3.290389        89.5360 
 113   0.0000       3.345479        91.0351 
 114   0.0000       3.379109        91.9502 
 115   0.0000       3.389048        92.2207 
 116   0.0000       3.409650        92.7813 
 117   0.0000       3.414822        92.9220 
 118   0.0000       3.465955        94.3134 
 119   0.0000       3.482801        94.7718 
 120   0.0000       3.496853        95.1542 
 121   0.0000       3.539136        96.3048 
 122   0.0000       3.573819        97.2486 
 123   0.0000       3.592977        97.7699 
 124   0.0000       3.680680       100.1564 
 125   0.0000       3.705416       100.8295 
 126   0.0000       3.760800       102.3366 
 127   0.0000       3.793829       103.2353 
 128   0.0000       3.832131       104.2776 
 129   0.0000       3.844346       104.6100 
 130   0.0000       3.862114       105.0935 
 131   0.0000       3.939466       107.1983 
 132   0.0000       4.013952       109.2252 
 133   0.0000       4.033483       109.7566 
 134   0.0000       4.093546       111.3911 
 135   0.0000       4.138804       112.6226 
 136   0.0000       4.162670       113.2720 
 137   0.0000       4.198241       114.2399 
 138   0.0000       4.228726       115.0695 
 139   0.0000       4.233856       115.2091 
 140   0.0000       4.245896       115.5367 
 141   0.0000       4.300548       117.0239 
 142   0.0000       4.327585       117.7596 
 143   0.0000       4.364505       118.7642 
 144   0.0000       4.406970       119.9198 
 145   0.0000       4.442717       120.8925 
 146   0.0000       4.498597       122.4131 
 147   0.0000       4.509812       122.7182 
 148   0.0000       4.672408       127.1427 
 149   0.0000       4.678546       127.3097 
 150   0.0000       4.832978       131.5120 
 151   0.0000       4.924140       133.9927 
 152   0.0000       4.935869       134.3118 
 153   0.0000       4.999507       136.0435 
 154   0.0000       5.058136       137.6389 
 155   0.0000       5.065146       137.8296 
 156   0.0000       5.178718       140.9201 
 157   0.0000       5.253310       142.9498 
 158   0.0000       5.276015       143.5677 
 159   0.0000       5.304416       144.3405 
 160   0.0000       5.359002       145.8259 
 161   0.0000       5.373115       146.2099 
 162   0.0000       5.459929       148.5722 
 163   0.0000       5.516465       150.1107 
 164   0.0000       5.619580       152.9166 
 165   0.0000       5.634030       153.3097 
 166   0.0000       5.706850       155.2913 
 167   0.0000       5.773665       157.1094 
 168   0.0000       5.868320       159.6851 
 169   0.0000       6.008932       163.5113 
 170   0.0000       6.035407       164.2318 
 171   0.0000       6.190563       168.4538 
 172   0.0000       6.671015       181.5275 
 173   0.0000       6.678088       181.7200 
 174   0.0000      23.873714       649.6368 
 175   0.0000      33.165004       902.4656 

                 SPIN DOWN ORBITALS
  NO   OCC          E(Eh)            E(eV) 
   0   1.0000     -14.511911      -394.8892 
   1   1.0000     -10.374494      -282.3043 
   2   1.0000      -1.015948       -27.6454 
   3   1.0000      -0.791509       -21.5381 
   4   1.0000      -0.617096       -16.7920 
   5   1.0000      -0.560912       -15.2632 
   6   1.0000      -0.524103       -14.2616 
   7   1.0000      -0.482459       -13.1284 
   8   1.0000      -0.366156        -9.9636 
   9   0.0000      -0.028121        -0.7652 
  10   0.0000       0.038883         1.0581 
  11   0.0000       0.051716         1.4073 
  12   0.0000       0.079427         2.1613 
  13   0.0000       0.106506         2.8982 
  14   0.0000       0.115041         3.1304 
  15   0.0000       0.116025         3.1572 
  16   0.0000       0.138874         3.7789 
  17   0.0000       0.142583         3.8799 
  18   0.0000       0.159370         4.3367 
  19   0.0000       0.189255         5.1499 
  20   0.0000       0.190414         5.1814 
  21   0.0000       0.190800         5.1919 
  22   0.0000       0.224359         6.1051 
  23   0.0000       0.231175         6.2906 
  24   0.0000       0.257525         7.0076 
  25   0.0000       0.262774         7.1504 
  26   0.0000       0.263539         7.1713 
  27   0.0000       0.309918         8.4333 
  28   0.0000       0.310865         8.4591 
  29   0.0000       0.314211         8.5501 
  30   0.0000       0.327467         8.9108 
  31   0.0000       0.333394         9.0721 
  32   0.0000       0.338995         9.2245 
  33   0.0000       0.341243         9.2857 
  34   0.0000       0.363466         9.8904 
  35   0.0000       0.364591         9.9210 
  36   0.0000       0.408978        11.1289 
  37   0.0000       0.410627        11.1737 
  38   0.0000       0.418051        11.3758 
  39   0.0000       0.421769        11.4769 
  40   0.0000       0.449046        12.2192 
  41   0.0000       0.453827        12.3493 
  42   0.0000       0.504150        13.7186 
  43   0.0000       0.524179        14.2636 
  44   0.0000       0.545082        14.8324 
  45   0.0000       0.552231        15.0270 
  46   0.0000       0.563200        15.3254 
  47   0.0000       0.622858        16.9488 
  48   0.0000       0.635222        17.2853 
  49   0.0000       0.643258        17.5039 
  50   0.0000       0.674948        18.3663 
  51   0.0000       0.731324        19.9004 
  52   0.0000       0.747307        20.3353 
  53   0.0000       0.751035        20.4367 
  54   0.0000       0.772783        21.0285 
  55   0.0000       0.783970        21.3329 
  56   0.0000       0.842579        22.9277 
  57   0.0000       0.884319        24.0635 
  58   0.0000       0.927626        25.2420 
  59   0.0000       0.941852        25.6291 
  60   0.0000       0.962454        26.1897 
  61   0.0000       0.987648        26.8753 
  62   0.0000       1.008910        27.4538 
  63   0.0000       1.061861        28.8947 
  64   0.0000       1.091951        29.7135 
  65   0.0000       1.097730        29.8707 
  66   0.0000       1.159913        31.5628 
  67   0.0000       1.171074        31.8666 
  68   0.0000       1.178893        32.0793 
  69   0.0000       1.218843        33.1664 
  70   0.0000       1.244199        33.8564 
  71   0.0000       1.247527        33.9469 
  72   0.0000       1.315340        35.7922 
  73   0.0000       1.334715        36.3194 
  74   0.0000       1.341781        36.5117 
  75   0.0000       1.393168        37.9100 
  76   0.0000       1.430098        38.9149 
  77   0.0000       1.462337        39.7922 
  78   0.0000       1.509269        41.0693 
  79   0.0000       1.544564        42.0297 
  80   0.0000       1.565837        42.6086 
  81   0.0000       1.654753        45.0281 
  82   0.0000       1.667940        45.3869 
  83   0.0000       1.770745        48.1844 
  84   0.0000       1.776799        48.3492 
  85   0.0000       1.812267        49.3143 
  86   0.0000       1.868292        50.8388 
  87   0.0000       1.912034        52.0291 
  88   0.0000       1.915458        52.1223 
  89   0.0000       2.145807        58.3904 
  90   0.0000       2.237674        60.8902 
  91   0.0000       2.365530        64.3693 
  92   0.0000       2.502795        68.1045 
  93   0.0000       2.632894        71.6447 
  94   0.0000       2.713063        73.8262 
  95   0.0000       2.731765        74.3351 
  96   0.0000       2.755588        74.9834 
  97   0.0000       2.767696        75.3128 
  98   0.0000       2.888649        78.6041 
  99   0.0000       2.897106        78.8343 
 100   0.0000       2.908002        79.1308 
 101   0.0000       2.965948        80.7075 
 102   0.0000       2.976490        80.9944 
 103   0.0000       3.026215        82.3475 
 104   0.0000       3.050543        83.0095 
 105   0.0000       3.094785        84.2134 
 106   0.0000       3.144368        85.5626 
 107   0.0000       3.156036        85.8801 
 108   0.0000       3.224170        87.7341 
 109   0.0000       3.244266        88.2810 
 110   0.0000       3.355760        91.3149 
 111   0.0000       3.375918        91.8634 
 112   0.0000       3.409075        92.7656 
 113   0.0000       3.432013        93.3898 
 114   0.0000       3.455332        94.0244 
 115   0.0000       3.480850        94.7187 
 116   0.0000       3.491106        94.9978 
 117   0.0000       3.500593        95.2560 
 118   0.0000       3.517113        95.7055 
 119   0.0000       3.553082        96.6843 
 120   0.0000       3.583133        97.5020 
 121   0.0000       3.663077        99.6774 
 122   0.0000       3.684415       100.2580 
 123   0.0000       3.708726       100.9196 
 124   0.0000       3.745998       101.9338 
 125   0.0000       3.771340       102.6234 
 126   0.0000       3.833342       104.3105 
 127   0.0000       3.849771       104.7576 
 128   0.0000       3.923112       106.7533 
 129   0.0000       4.013124       109.2027 
 130   0.0000       4.018457       109.3478 
 131   0.0000       4.062477       110.5456 
 132   0.0000       4.098094       111.5148 
 133   0.0000       4.146529       112.8328 
 134   0.0000       4.172435       113.5377 
 135   0.0000       4.177193       113.6672 
 136   0.0000       4.224293       114.9489 
 137   0.0000       4.229973       115.1034 
 138   0.0000       4.232647       115.1762 
 139   0.0000       4.261319       115.9564 
 140   0.0000       4.313807       117.3847 
 141   0.0000       4.328968       117.7972 
 142   0.0000       4.368603       118.8757 
 143   0.0000       4.410036       120.0032 
 144   0.0000       4.437038       120.7379 
 145   0.0000       4.501984       122.5052 
 146   0.0000       4.511348       122.7600 
 147   0.0000       4.578228       124.5799 
 148   0.0000       4.683987       127.4578 
 149   0.0000       4.735858       128.8693 
 150   0.0000       4.856777       132.1596 
 151   0.0000       4.926326       134.0521 
 152   0.0000       4.943349       134.5154 
 153   0.0000       5.008700       136.2937 
 154   0.0000       5.063292       137.7792 
 155   0.0000       5.098268       138.7309 
 156   0.0000       5.181426       140.9938 
 157   0.0000       5.255521       143.0100 
 158   0.0000       5.284386       143.7954 
 159   0.0000       5.312477       144.5598 
 160   0.0000       5.362746       145.9277 
 161   0.0000       5.374500       146.2476 
 162   0.0000       5.476261       149.0166 
 163   0.0000       5.521621       150.2509 
 164   0.0000       5.623374       153.0198 
 165   0.0000       5.634925       153.3341 
 166   0.0000       5.714220       155.4918 
 167   0.0000       5.780366       157.2917 
 168   0.0000       5.875380       159.8772 
 169   0.0000       6.024484       163.9346 
 170   0.0000       6.043895       164.4628 
 171   0.0000       6.200289       168.7185 
 172   0.0000       6.683973       181.8801 
 173   0.0000       6.689394       182.0277 
 174   0.0000      23.873738       649.6374 
 175   0.0000      33.170247       902.6083 

                    ********************************
                    * MULLIKEN POPULATION ANALYSIS *
                    ********************************

--------------------------------------------
MULLIKEN ATOMIC CHARGES AND SPIN POPULATIONS
--------------------------------------------
   0 H :    0.240817    0.014618
   1 H :    0.237134    0.003040
   2 C :   -0.558061   -0.027105
   3 H :    0.145382   -0.024371
   4 H :    0.235314    0.002285
   5 H :   -0.047345    0.846423
   6 H :    0.147151   -0.023286
   7 N :   -0.400392    0.208395
Sum of atomic charges         :    0.0000000
Sum of atomic spin populations:    1.0000000

-----------------------------------------------------
MULLIKEN REDUCED ORBITAL CHARGES AND SPIN POPULATIONS
-----------------------------------------------------
CHARGE
  0 H s       :     0.709952  s :     0.709952
      pz      :     0.019935  p :     0.047057
      px      :     0.011122
      py      :     0.016000
      dz2     :     0.000648  d :     0.002174
      dxz     :     0.000144
      dyz     :     0.000442
      dx2y2   :     0.000356
      dxy     :     0.000583
  1 H s       :     0.717055  s :     0.717055
      pz      :     0.012194  p :     0.043561
      px      :     0.014739
      py      :     0.016628
      dz2     :     0.000363  d :     0.002250
      dxz     :     0.000453
      dyz     :     0.000309
      dx2y2   :     0.000672
      dxy     :     0.000453
  2 C s       :     3.366644  s :     3.366644
      pz      :     0.729324  p :     3.066384
      px      :     1.192956
      py      :     1.144105
      dz2     :     0.010697  d :     0.119927
      dxz     :     0.012528
      dyz     :     0.054659
      dx2y2   :     0.014129
      dxy     :     0.027915
      f0      :     0.001909  f :     0.005105
      f+1     :     0.000996
      f-1     :     0.001906
      f+2     :     0.000029
      f-2     :     0.000006
      f+3     :    -0.000005
      f-3     :     0.000263
  3 H s       :     0.761185  s :     0.761185
      pz      :     0.020166  p :     0.087837
      px      :     0.023967
      py      :     0.043704
      dz2     :     0.000719  d :     0.005597
      dxz     :     0.001348
      dyz     :     0.000395
      dx2y2   :     0.001488
      dxy     :     0.001646
  4 H s       :     0.721336  s :     0.721336
      pz      :     0.011582  p :     0.041102
      px      :     0.015538
      py      :     0.013982
      dz2     :     0.000373  d :     0.002247
      dxz     :     0.000515
      dyz     :     0.000241
      dx2y2   :     0.000622
      dxy     :     0.000497
  5 H s       :     1.022578  s :     1.022578
      pz      :     0.005698  p :     0.024548
      px      :     0.000868
      py      :     0.017982
      dz2     :     0.000013  d :     0.000219
      dxz     :     0.000001
      dyz     :     0.000101
      dx2y2   :     0.000094
      dxy     :     0.000010
  6 H s       :     0.759273  s :     0.759273
      pz      :     0.020084  p :     0.087973
      px      :     0.023619
      py      :     0.044269
      dz2     :     0.000716  d :     0.005604
      dxz     :     0.001261
      dyz     :     0.000470
      dx2y2   :     0.001549
      dxy     :     0.001607
  7 N s       :     3.666836  s :     3.666836
      pz      :     1.143599  p :     3.718039
      px      :     1.091113
      py      :     1.483327
      dz2     :     0.006459  d :     0.014286
      dxz     :    -0.002841
      dyz     :     0.002545
      dx2y2   :     0.005293
      dxy     :     0.002830
      f0      :     0.000574  f :     0.001232
      f+1     :     0.000257
      f-1     :     0.000357
      f+2     :     0.000012
      f-2     :    -0.000040
      f+3     :     0.000012
      f-3     :     0.000060

SPIN
  0 H s       :     0.017032  s :     0.017032
      pz      :    -0.001840  p :    -0.002435
      px      :    -0.001053
      py      :     0.000458
      dz2     :     0.000017  d :     0.000021
      dxz     :    -0.000000
      dyz     :    -0.000001
      dx2y2   :     0.000007
      dxy     :    -0.000001
  1 H s       :     0.000509  s :     0.000509
      pz      :    -0.001060  p :     0.002536
      px      :    -0.001316
      py      :     0.004911
      dz2     :    -0.000002  d :    -0.000004
      dxz     :    -0.000003
      dyz     :     0.000001
      dx2y2   :    -0.000002
      dxy     :     0.000002
  2 C s       :     0.003020  s :     0.003020
      pz      :    -0.012118  p :    -0.018457
      px      :    -0.017796
      py      :     0.011457
      dz2     :     0.004181  d :    -0.011848
      dxz     :    -0.000659
      dyz     :    -0.010063
      dx2y2   :    -0.003258
      dxy     :    -0.002049
      f0      :     0.000018  f :     0.000181
      f+1     :    -0.000008
      f-1     :     0.000162
      f+2     :     0.000008
      f-2     :    -0.000001
      f+3     :    -0.000000
      f-3     :     0.000002
  3 H s       :    -0.020204  s :    -0.020204
      pz      :    -0.000897  p :    -0.004399
      px      :    -0.000745
      py      :    -0.002757
      dz2     :     0.000039  d :     0.000232
      dxz     :     0.000026
      dyz     :     0.000001
      dx2y2   :     0.000010
      dxy     :     0.000156
  4 H s       :     0.001126  s :     0.001126
      pz      :    -0.001043  p :     0.001162
      px      :    -0.001563
      py      :     0.003768
      dz2     :    -0.000002  d :    -0.000003
      dxz     :    -0.000003
      dyz     :     0.000002
      dx2y2   :    -0.000002
      dxy     :     0.000003
  5 H s       :     0.821305  s :     0.821305
      pz      :     0.004756  p :     0.025018
      px      :    -0.000367
      py      :     0.020628
      dz2     :     0.000007  d :     0.000100
      dxz     :     0.000001
      dyz     :     0.000045
      dx2y2   :     0.000039
      dxy     :     0.000007
  6 H s       :    -0.020296  s :    -0.020296
      pz      :    -0.001016  p :    -0.003219
      px      :    -0.000890
      py      :    -0.001313
      dz2     :     0.000039  d :     0.000229
      dxz     :     0.000027
      dyz     :    -0.000005
      dx2y2   :     0.000033
      dxy     :     0.000133
  7 N s       :     0.074896  s :     0.074896
      pz      :     0.022466  p :     0.118789
      px      :     0.011671
      py      :     0.084653
      dz2     :     0.001243  d :     0.014722
      dxz     :     0.001955
      dyz     :     0.005294
      dx2y2   :     0.005730
      dxy     :     0.000499
      f0      :    -0.000011  f :    -0.000012
      f+1     :     0.000001
      f-1     :    -0.000004
      f+2     :     0.000022
      f-2     :    -0.000011
      f+3     :    -0.000001
      f-3     :    -0.000008


                     *******************************
                     * LOEWDIN POPULATION ANALYSIS *
                     *******************************

-------------------------------------------
LOEWDIN ATOMIC CHARGES AND SPIN POPULATIONS
-------------------------------------------
   0 H :   -0.015658    0.005304
   1 H :   -0.015606    0.005542
   2 C :    0.037535    0.017729
   3 H :   -0.106806    0.013609
   4 H :   -0.014408    0.004457
   5 H :    0.025861    0.733314
   6 H :   -0.105541    0.013138
   7 N :    0.194622    0.206906

----------------------------------------------------
LOEWDIN REDUCED ORBITAL CHARGES AND SPIN POPULATIONS
----------------------------------------------------
CHARGE
  0 H s       :     0.718229  s :     0.718229
      pz      :     0.072295  p :     0.269144
      px      :     0.077888
      py      :     0.118961
      dz2     :     0.005210  d :     0.028285
      dxz     :     0.002132
      dyz     :     0.008078
      dx2y2   :     0.005452
      dxy     :     0.007414
  1 H s       :     0.711015  s :     0.711015
      pz      :     0.063846  p :     0.275433
      px      :     0.112322
      py      :     0.099266
      dz2     :     0.003608  d :     0.029158
      dxz     :     0.005401
      dyz     :     0.003447
      dx2y2   :     0.009024
      dxy     :     0.007677
  2 C s       :     2.667934  s :     2.667934
      pz      :     0.794598  p :     2.663092
      px      :     0.938981
      py      :     0.929514
      dz2     :     0.156371  d :     0.587248
      dxz     :     0.116964
      dyz     :     0.209956
      dx2y2   :     0.039205
      dxy     :     0.064753
      f0      :     0.012541  f :     0.044190
      f+1     :     0.008832
      f-1     :     0.010025
      f+2     :     0.004772
      f-2     :     0.003196
      f+3     :     0.000311
      f-3     :     0.004513
  3 H s       :     0.654237  s :     0.654237
      pz      :     0.101266  p :     0.394038
      px      :     0.138117
      py      :     0.154654
      dz2     :     0.008206  d :     0.058531
      dxz     :     0.013389
      dyz     :     0.004843
      dx2y2   :     0.014592
      dxy     :     0.017502
  4 H s       :     0.711047  s :     0.711047
      pz      :     0.063427  p :     0.274198
      px      :     0.117324
      py      :     0.093447
      dz2     :     0.003659  d :     0.029163
      dxz     :     0.006229
      dyz     :     0.002675
      dx2y2   :     0.008612
      dxy     :     0.007988
  5 H s       :     0.868352  s :     0.868352
      pz      :     0.024351  p :     0.104453
      px      :     0.004911
      py      :     0.075190
      dz2     :     0.000067  d :     0.001335
      dxz     :     0.000010
      dyz     :     0.000642
      dx2y2   :     0.000591
      dxy     :     0.000025
  6 H s       :     0.654135  s :     0.654135
      pz      :     0.100712  p :     0.392891
      px      :     0.133565
      py      :     0.158613
      dz2     :     0.008103  d :     0.058514
      dxz     :     0.012613
      dyz     :     0.005558
      dx2y2   :     0.015556
      dxy     :     0.016684
  7 N s       :     2.911958  s :     2.911958
      pz      :     1.077574  p :     3.418083
      px      :     1.076836
      py      :     1.263672
      dz2     :     0.110996  d :     0.464722
      dxz     :     0.126402
      dyz     :     0.141241
      dx2y2   :     0.040509
      dxy     :     0.045573
      f0      :     0.002580  f :     0.010616
      f+1     :     0.002264
      f-1     :     0.001907
      f+2     :     0.000573
      f-2     :     0.001493
      f+3     :     0.000184
      f-3     :     0.001614

SPIN
  0 H s       :     0.002496  s :     0.002496
      pz      :     0.002802  p :     0.002734
      px      :    -0.000114
      py      :     0.000046
      dz2     :     0.000060  d :     0.000074
      dxz     :     0.000003
      dyz     :    -0.000015
      dx2y2   :     0.000020
      dxy     :     0.000006
  1 H s       :     0.000863  s :     0.000863
      pz      :     0.002015  p :     0.004724
      px      :    -0.000001
      py      :     0.002710
      dz2     :    -0.000007  d :    -0.000044
      dxz     :    -0.000019
      dyz     :    -0.000010
      dx2y2   :    -0.000016
      dxy     :     0.000008
  2 C s       :     0.005925  s :     0.005925
      pz      :     0.000367  p :     0.000784
      px      :     0.000023
      py      :     0.000394
      dz2     :     0.003935  d :     0.009499
      dxz     :    -0.000263
      dyz     :     0.004822
      dx2y2   :     0.001217
      dxy     :    -0.000211
      f0      :     0.000507  f :     0.001521
      f+1     :     0.000044
      f-1     :     0.000831
      f+2     :     0.000135
      f-2     :     0.000004
      f+3     :     0.000001
      f-3     :    -0.000001
  3 H s       :     0.000390  s :     0.000390
      pz      :     0.001702  p :     0.010280
      px      :     0.000866
      py      :     0.007712
      dz2     :     0.000488  d :     0.002939
      dxz     :     0.000360
      dyz     :     0.000068
      dx2y2   :     0.000337
      dxy     :     0.001686
  4 H s       :     0.000711  s :     0.000711
      pz      :     0.001597  p :     0.003788
      px      :     0.000060
      py      :     0.002131
      dz2     :    -0.000007  d :    -0.000041
      dxz     :    -0.000021
      dyz     :    -0.000005
      dx2y2   :    -0.000017
      dxy     :     0.000008
  5 H s       :     0.680051  s :     0.680051
      pz      :     0.012322  p :     0.052809
      px      :    -0.000151
      py      :     0.040638
      dz2     :     0.000015  d :     0.000454
      dxz     :     0.000001
      dyz     :     0.000224
      dx2y2   :     0.000209
      dxy     :     0.000004
  6 H s       :     0.000245  s :     0.000245
      pz      :     0.001639  p :     0.009969
      px      :     0.000429
      py      :     0.007901
      dz2     :     0.000486  d :     0.002925
      dxz     :     0.000387
      dyz     :     0.000047
      dx2y2   :     0.000577
      dxy     :     0.001427
  7 N s       :     0.040817  s :     0.040817
      pz      :     0.023058  p :     0.112224
      px      :     0.004098
      py      :     0.085068
      dz2     :     0.004385  d :     0.053778
      dxz     :    -0.000298
      dyz     :     0.023190
      dx2y2   :     0.027052
      dxy     :    -0.000551
      f0      :     0.000080  f :     0.000087
      f+1     :    -0.000003
      f-1     :     0.000002
      f+2     :     0.000022
      f-2     :    -0.000029
      f+3     :     0.000004
      f-3     :     0.000011


                      *****************************
                      * MAYER POPULATION ANALYSIS *
                      *****************************

  NA   - Mulliken gross atomic population
  ZA   - Total nuclear charge
  QA   - Mulliken gross atomic charge
  VA   - Mayer's total valence
  BVA  - Mayer's bonded valence
  FA   - Mayer's free valence

  ATOM       NA         ZA         QA         VA         BVA        FA
  0 H      0.7592     1.0000     0.2408     1.0274     1.0275    -0.0001
  1 H      0.7629     1.0000     0.2371     1.0022     1.0022     0.0000
  2 C      6.5581     6.0000    -0.5581     3.6206     3.6203     0.0003
  3 H      0.8546     1.0000     0.1454     1.0069     1.0071    -0.0002
  4 H      0.7647     1.0000     0.2353     1.0006     1.0006    -0.0000
  5 H      1.0473     1.0000    -0.0473     1.0258     0.3125     0.7133
  6 H      0.8528     1.0000     0.1472     1.0039     1.0042    -0.0003
  7 N      7.4004     7.0000    -0.4004     3.3596     3.2496     0.1101

  Mayer bond orders larger than 0.100000
B(  0-H ,  2-C ) :   0.9680 B(  1-H ,  2-C ) :   0.9648 B(  2-C ,  4-H ) :   0.9634 
B(  2-C ,  7-N ) :   0.7348 B(  3-H ,  7-N ) :   1.0368 B(  5-H ,  7-N ) :   0.4019 
B(  6-H ,  7-N ) :   1.0365 

-------
TIMINGS
-------

Total SCF time: 0 days 0 hours 0 min 6 sec 

Total time                  ....       6.224 sec
Sum of individual times     ....       5.949 sec  ( 95.6%)

Fock matrix formation       ....       5.438 sec  ( 87.4%)
  XC integration            ....       0.917 sec  ( 16.9% of F)
    Basis function eval.    ....       0.065 sec  (  7.0% of XC)
    Density eval.           ....       0.186 sec  ( 20.3% of XC)
    XC-Functional eval.     ....       0.030 sec  (  3.3% of XC)
    XC-Potential eval.      ....       0.435 sec  ( 47.4% of XC)
Diagonalization             ....       0.103 sec  (  1.6%)
Density matrix formation    ....       0.017 sec  (  0.3%)
Population analysis         ....       0.012 sec  (  0.2%)
Initial guess               ....       0.119 sec  (  1.9%)
Orbital Transformation      ....       0.000 sec  (  0.0%)
Orbital Orthonormalization  ....       0.000 sec  (  0.0%)
DIIS solution               ....       0.033 sec  (  0.5%)
Grid generation             ....       0.227 sec  (  3.7%)

-------------------------   --------------------
FINAL SINGLE POINT ENERGY       -96.331225226157
-------------------------   --------------------


                            ***************************************
                            *     ORCA property calculations      *
                            ***************************************

                                    ---------------------
                                    Active property flags
                                    ---------------------
   (+) Dipole Moment


------------------------------------------------------------------------------
                       ORCA ELECTRIC PROPERTIES CALCULATION
------------------------------------------------------------------------------

Dipole Moment Calculation                       ... on
Quadrupole Moment Calculation                   ... off
Polarizability Calculation                      ... off
GBWName                                         ... 123.gbw
Electron density file                           ... 123.scfp
The origin for moment calculation is the CENTER OF MASS  = ( 0.001931, -0.194470 -0.006678)

-------------
DIPOLE MOMENT
-------------
                                X             Y             Z
Electronic contribution:     -0.00885      -1.74535       0.54795
Nuclear contribution   :     -0.00825       0.82489      -0.08847
                        -----------------------------------------
Total Dipole Moment    :     -0.01710      -0.92047       0.45948
                        -----------------------------------------
Magnitude (a.u.)       :      1.02892
Magnitude (Debye)      :      2.61531



--------------------
Rotational spectrum 
--------------------
 
Rotational constants in cm-1:     2.000356     0.660608     0.601270 
Rotational constants in MHz : 59969.149740 19804.516397 18025.616086 

 Dipole components along the rotational axes: 
x,y,z [a.u.] :     0.459486    -0.920466     0.017099 
x,y,z [Debye]:     1.167921    -2.339640     0.043463 

 

Timings for individual modules:

Sum of individual times         ...        7.511 sec (=   0.125 min)
GTO integral calculation        ...        0.829 sec (=   0.014 min)  11.0 %
SCF iterations                  ...        6.682 sec (=   0.111 min)  89.0 %
                             ****ORCA TERMINATED NORMALLY****
TOTAL RUN TIME: 0 days 0 hours 0 minutes 8 seconds 64 msec
