
                                 *****************
                                 * O   R   C   A *
                                 *****************

           --- An Ab Initio, DFT and Semiempirical electronic structure package ---

                  #######################################################
                  #                        -***-                        #
                  #          Department of theory and spectroscopy      #
                  #               Directorship: Frank Neese             #
                  #        Max Planck Institute fuer Kohlenforschung    #
                  #                Kaiser Wilhelm Platz 1               #
                  #                 D-45470 Muelheim/Ruhr               #
                  #                      Germany                        #
                  #                                                     #
                  #                  All rights reserved                #
                  #                        -***-                        #
                  #######################################################


                         Program Version 4.2.0 -  RELEASE  -


 With contributions from (in alphabetic order):
   Daniel Aravena         : Magnetic Suceptibility
   Michael Atanasov       : Ab Initio Ligand Field Theory (pilot matlab implementation)
   Alexander A. Auer      : GIAO ZORA, VPT2
   Ute Becker             : Parallelization
   Giovanni Bistoni       : ED, misc. LED, open-shell LED, HFLED
   Martin Brehm           : Molecular dynamics
   Dmytro Bykov           : SCF Hessian
   Vijay G. Chilkuri      : MRCI spin determinant printing, contributions to CSF-ICE
   Dipayan Datta          : RHF DLPNO-CCSD density
   Achintya Kumar Dutta   : EOM-CC, STEOM-CC
   Dmitry Ganyushin       : Spin-Orbit,Spin-Spin,Magnetic field MRCI
   Miquel Garcia          : C-PCM Hessian, Gaussian charge scheme
   Yang Guo               : DLPNO-NEVPT2, CIM, IAO-localization
   Andreas Hansen         : Spin unrestricted coupled pair/coupled cluster methods
   Benjamin Helmich-Paris : CASSCF linear response (MC-RPA)
   Lee Huntington         : MR-EOM, pCC
   Robert Izsak           : Overlap fitted RIJCOSX, COSX-SCS-MP3, EOM
   Christian Kollmar      : KDIIS, OOCD, Brueckner-CCSD(T), CCSD density
   Simone Kossmann        : Meta GGA functionals, TD-DFT gradient, OOMP2, MP2 Hessian
   Martin Krupicka        : AUTO-CI
   Lucas Lang             : DCDCAS
   Dagmar Lenk            : GEPOL surface, SMD
   Dimitrios Liakos       : Extrapolation schemes; Compound Job, initial MDCI parallelization
   Dimitrios Manganas     : Further ROCIS development; embedding schemes
   Dimitrios Pantazis     : SARC Basis sets
   Taras Petrenko         : DFT Hessian,TD-DFT gradient, ASA, ECA, R-Raman, ABS, FL, XAS/XES, NRVS
   Peter Pinski           : DLPNO-MP2, DLPNO-MP2 Gradient
   Christoph Reimann      : Effective Core Potentials
   Marius Retegan         : Local ZFS, SOC
   Christoph Riplinger    : Optimizer, TS searches, QM/MM, DLPNO-CCSD(T), (RO)-DLPNO pert. Triples
   Tobias Risthaus        : Range-separated hybrids, TD-DFT gradient, RPA, STAB
   Michael Roemelt        : Original ROCIS implementation
   Masaaki Saitow         : Open-shell DLPNO-CCSD energy and density
   Barbara Sandhoefer     : DKH picture change effects
   Avijit Sen             : IP-ROCIS
   Kantharuban Sivalingam : CASSCF convergence, NEVPT2, FIC-MRCI
   Bernardo de Souza      : ESD, SOC TD-DFT
   Georgi Stoychev        : AutoAux, RI-MP2 NMR
   Willem Van den Heuvel  : Paramagnetic NMR
   Boris Wezisla          : Elementary symmetry handling
   Frank Wennmohs         : Technical directorship


 We gratefully acknowledge several colleagues who have allowed us to
 interface, adapt or use parts of their codes:
   Stefan Grimme, W. Hujo, H. Kruse,             : VdW corrections, initial TS optimization,
                  C. Bannwarth                     DFT functionals, gCP, sTDA/sTD-DF
   Ed Valeev, F. Pavosevic, A. Kumar             : LibInt (2-el integral package), F12 methods
   Garnet Chan, S. Sharma, J. Yang, R. Olivares  : DMRG
   Ulf Ekstrom                                   : XCFun DFT Library
   Mihaly Kallay                                 : mrcc  (arbitrary order and MRCC methods)
   Andreas Klamt, Michael Diedenhofen            : otool_cosmo (COSMO solvation model)
   Jiri Pittner, Ondrej Demel                    : Mk-CCSD
   Frank Weinhold                                : gennbo (NPA and NBO analysis)
   Christopher J. Cramer and Donald G. Truhlar   : smd solvation model
   Lars Goerigk                                  : TD-DFT with DH, B97 family of functionals
   V. Asgeirsson, H. Jonsson                     : NEB implementation
   FAccTs GmbH                                   : IRC, NEB, NEB-TS, Multilevel, MM, QM/MM, CI optimization
   S Lehtola, MJT Oliveira, MAL Marques          : LibXC Library


 Your calculation uses the libint2 library for the computation of 2-el integrals
 For citations please refer to: http://libint.valeyev.net

 Your ORCA version has been built with support for libXC version: 4.2.3
 For citations please refer to: https://tddft.org/programs/libxc/

 This ORCA versions uses:
   CBLAS   interface :  Fast vector & matrix operations
   LAPACKE interface :  Fast linear algebra routines
   SCALAPACK package :  Parallel linear algebra routines


Your calculation utilizes the DFT-NL dispersion correction.
Cite in your paper:
Vydrov, O. A.; Van Voorhis, T. J. Chem. Phys. 2010, 133, 244103
Hujo, W.; Grimme, S. J. Chem. Theory Comput. 2011, 7, 3866 
   

----- Orbital basis set information -----
Your calculation utilizes the basis: def2-TZVPPD
   F. Weigend and R. Ahlrichs, Phys. Chem. Chem. Phys. 7, 3297 (2005).
   D. Rappoport and F. Furche, J. Chem. Phys. 133 134105 (2010).

----- AuxJK basis set information -----
Your calculation utilizes the auxiliary basis: def2/JK
   H-Ba, Hf-Rn: F. Weigend, J. Comput. Chem. 29, 167 (2008).

================================================================================
                                        WARNINGS
                       Please study these warnings very carefully!
================================================================================


INFO   : the flag for use of LIBINT has been found!

================================================================================
                                       INPUT FILE
================================================================================
NAME = 138.in
|  1> #
|  2> # 138 wB97M-V/Def2-TZVPPD
|  3> #
|  4> ! wb97m-v def2-tzvppd def2/jk grid4 nofinalgrid
|  5> 
|  6> *xyz 0 1
|  7> H          0.64849       -1.47778       -0.13722
|  8> H         -0.62659       -0.18590       -3.09890
|  9> H         -0.40094       -0.71477       -2.61128
| 10> H          0.74472        0.82794        2.20080
| 11> H          0.41684       -1.04544        0.48242
| 12> H         -0.86873        0.85706        2.13389
| 13> Na         0.12711        1.09566       -0.53418
| 14> N         -0.04090        0.64323        1.56447
| 15> *
| 16> 
| 17> %maxcore 5000
| 18> 
| 19> %pal
| 20> nprocs = 24
| 21> end
| 22> 
| 23> 
| 24>                          ****END OF INPUT****
================================================================================

                       ****************************
                       * Single Point Calculation *
                       ****************************

---------------------------------
CARTESIAN COORDINATES (ANGSTROEM)
---------------------------------
  H      0.648490   -1.477780   -0.137220
  H     -0.626590   -0.185900   -3.098900
  H     -0.400940   -0.714770   -2.611280
  H      0.744720    0.827940    2.200800
  H      0.416840   -1.045440    0.482420
  H     -0.868730    0.857060    2.133890
  Na     0.127110    1.095660   -0.534180
  N     -0.040900    0.643230    1.564470

----------------------------
CARTESIAN COORDINATES (A.U.)
----------------------------
  NO LB      ZA    FRAG     MASS         X           Y           Z
   0 H     1.0000    0     1.008    1.225469   -2.792599   -0.259308
   1 H     1.0000    0     1.008   -1.184083   -0.351300   -5.856072
   2 H     1.0000    0     1.008   -0.757667   -1.350720   -4.934604
   3 H     1.0000    0     1.008    1.407317    1.564580    4.158909
   4 H     1.0000    0     1.008    0.787713   -1.975595    0.911642
   5 H     1.0000    0     1.008   -1.641662    1.619609    4.032468
   6 Na   11.0000    0    22.990    0.240203    2.070497   -1.009454
   7 N     7.0000    0    14.007   -0.077290    1.215529    2.956420

--------------------------------
INTERNAL COORDINATES (ANGSTROEM)
--------------------------------
 H      0   0   0     0.000000000000     0.00000000     0.00000000
 H      1   0   0     3.473662528686     0.00000000     0.00000000
 H      2   1   0     0.753919534035    22.74911369     0.00000000
 H      1   2   3     3.285109199357   110.88703965   192.97066018
 H      1   2   3     0.790274210448   110.94410563   215.49760303
 H      4   1   2     1.615099323571    87.35815731    65.14463003
 Na     5   1   2     2.387829190478   101.08689608   332.07028859
 N      6   4   1     1.027260879329    38.20269716   333.56997625

---------------------------
INTERNAL COORDINATES (A.U.)
---------------------------
 H      0   0   0     0.000000000000     0.00000000     0.00000000
 H      1   0   0     6.564270860882     0.00000000     0.00000000
 H      2   1   0     1.424701446340    22.74911369     0.00000000
 H      1   2   3     6.207956706810   110.88703965   192.97066018
 H      1   2   3     1.493401828449   110.94410563   215.49760303
 H      4   1   2     3.052095400631    87.35815731    65.14463003
 Na     5   1   2     4.512343224587   101.08689608   332.07028859
 N      6   4   1     1.941241730023    38.20269716   333.56997625

---------------------
BASIS SET INFORMATION
---------------------
There are 3 groups of distinct atoms

 Group   1 Type H   : 5s3p1d contracted to 3s3p1d pattern {311/111/1}
 Group   2 Type Na  : 14s9p3d contracted to 5s5p3d pattern {73211/51111/111}
 Group   3 Type N   : 12s6p3d1f contracted to 6s3p3d1f pattern {621111/411/111/1}

Atom   0H    basis set group =>   1
Atom   1H    basis set group =>   1
Atom   2H    basis set group =>   1
Atom   3H    basis set group =>   1
Atom   4H    basis set group =>   1
Atom   5H    basis set group =>   1
Atom   6Na   basis set group =>   2
Atom   7N    basis set group =>   3
----------------------------------
AUXILIARY/JK BASIS SET INFORMATION
----------------------------------
There are 3 groups of distinct atoms

 Group   1 Type H   : 4s2p2d contracted to 2s2p2d pattern {31/11/11}
 Group   2 Type Na  : 16s12p9d4f1g contracted to 13s9p7d4f1g pattern {4111111111111/411111111/3111111/1111/1}
 Group   3 Type N   : 14s10p6d2f1g contracted to 10s8p4d2f1g pattern {5111111111/31111111/3111/11/1}

Atom   0H    basis set group =>   1
Atom   1H    basis set group =>   1
Atom   2H    basis set group =>   1
Atom   3H    basis set group =>   1
Atom   4H    basis set group =>   1
Atom   5H    basis set group =>   1
Atom   6Na   basis set group =>   2
Atom   7N    basis set group =>   3


           ************************************************************
           *        Program running with 24 parallel MPI-processes    *
           *              working on a common directory               *
           ************************************************************
------------------------------------------------------------------------------
                           ORCA GTO INTEGRAL CALCULATION
------------------------------------------------------------------------------

                         BASIS SET STATISTICS AND STARTUP INFO

 # of primitive gaussian shells          ...  102
 # of primitive gaussian functions       ...  222
 # of contracted shells                  ...   68
 # of contracted basis functions         ...  174
 Highest angular momentum                ...    3
 Maximum contraction depth               ...    7
 Integral package used                   ... LIBINT
 Integral threshhold            Thresh   ...  1.000e-10
 Primitive cut-off              TCut     ...  1.000e-11


------------------------------ INTEGRAL EVALUATION ----------------------------


 * One electron integrals 
 Pre-screening matrix                    ... done
 Shell pair data                         ... done (   0.001 sec)



           ************************************************************
           *        Program running with 24 parallel MPI-processes    *
           *              working on a common directory               *
           ************************************************************
-------------------------------------------------------------------------------
                                 ORCA SCF
-------------------------------------------------------------------------------

------------
SCF SETTINGS
------------
Hamiltonian:
 Density Functional     Method          .... DFT(GTOs)
 Exchange Functional    Exchange        .... WB97M-V
 Correlation Functional Correlation     .... WB97M-V
 Gradients option       PostSCFGGA      .... off
 Hybrid DFT is turned on
   Fraction HF Exchange ScalHFX         ....  0.150000
   Scaling of DF-GGA-X  ScalDFX         ....  0.000000
   Scaling of DF-GGA-C  ScalDFC         ....  1.000000
   Scaling of DF-LDA-C  ScalLDAC        ....  1.000000
   Perturbative correction              ....  0.000000
   Density functional embedding theory  .... OFF
 Long-range corrected/Screened/Range-Separated Hybrid DFT is turned on
   Amount of maximum screened exact exchange              ....  0.850000
   Range separation parameter mu (erf(mu*r12)/r12)        ....  0.300000
   NL short-range parameter             ....  6.000000
   NL long-range parameter              ....  0.010000


General Settings:
 Integral files         IntName         .... 138
 Hartree-Fock type      HFTyp           .... RHF
 Total Charge           Charge          ....    0
 Multiplicity           Mult            ....    1
 Number of Electrons    NEL             ....   24
 Basis Dimension        Dim             ....  174
 Nuclear Repulsion      ENuc            ....     47.0888366337 Eh

Convergence Acceleration:
 DIIS                   CNVDIIS         .... on
   Start iteration      DIISMaxIt       ....    12
   Startup error        DIISStart       ....  0.200000
   # of expansion vecs  DIISMaxEq       ....     5
   Bias factor          DIISBfac        ....   1.050
   Max. coefficient     DIISMaxC        ....  10.000
 Newton-Raphson         CNVNR           .... off
 SOSCF                  CNVSOSCF        .... on
   Start iteration      SOSCFMaxIt      ....   150
   Startup grad/error   SOSCFStart      ....  0.003300
 Level Shifting         CNVShift        .... on
   Level shift para.    LevelShift      ....    0.2500
   Turn off err/grad.   ShiftErr        ....    0.0010
 Zerner damping         CNVZerner       .... off
 Static damping         CNVDamp         .... on
   Fraction old density DampFac         ....    0.7000
   Max. Damping (<1)    DampMax         ....    0.9800
   Min. Damping (>=0)   DampMin         ....    0.0000
   Turn off err/grad.   DampErr         ....    0.1000
 Fernandez-Rico         CNVRico         .... off

SCF Procedure:
 Maximum # iterations   MaxIter         ....   125
 SCF integral mode      SCFMode         .... Direct
   Integral package                     .... LIBINT
 Reset frequency        DirectResetFreq ....    20
 Integral Threshold     Thresh          ....  1.000e-10 Eh
 Primitive CutOff       TCut            ....  1.000e-11 Eh

Convergence Tolerance:
 Convergence Check Mode ConvCheckMode   .... Total+1el-Energy
 Convergence forced     ConvForced      .... 0
 Energy Change          TolE            ....  1.000e-06 Eh
 1-El. energy change                    ....  1.000e-03 Eh
 Orbital Gradient       TolG            ....  5.000e-05
 Orbital Rotation angle TolX            ....  5.000e-05
 DIIS Error             TolErr          ....  1.000e-06


Diagonalization of the overlap matrix:
Smallest eigenvalue                        ... 6.521e-05
Time for diagonalization                   ...    0.008 sec
Threshold for overlap eigenvalues          ... 1.000e-08
Number of eigenvalues below threshold      ... 0
Time for construction of square roots      ...    0.003 sec
Total time needed                          ...    0.012 sec

-------------------
DFT GRID GENERATION
-------------------

General Integration Accuracy     IntAcc      ...  4.670
Radial Grid Type                 RadialGrid  ... Gauss-Chebyshev
Angular Grid (max. acc.)         AngularGrid ... Lebedev-302
Angular grid pruning method      GridPruning ... 3 (G Style)
Weight generation scheme         WeightScheme... Becke
Basis function cutoff            BFCut       ...    1.0000e-10
Integration weight cutoff        WCut        ...    1.0000e-14
Grids for H and He will be reduced by one unit

# of grid points (after initial pruning)     ...  33110 (   0.0 sec)
# of grid points (after weights+screening)   ...  31917 (   0.0 sec)
nearest neighbour list constructed           ...    0.0 sec
Grid point re-assignment to atoms done       ...    0.0 sec
Grid point division into batches done        ...    0.1 sec
Reduced shell lists constructed in    0.1 sec

Total number of grid points                  ...    31917
Total number of batches                      ...      502
Average number of points per batch           ...       63
Average number of grid points per atom       ...     3990
Average number of shells per batch           ...    32.36 (47.59%)
Average number of basis functions per batch  ...    76.55 (43.99%)
Average number of large shells per batch     ...    24.32 (75.14%)
Average number of large basis fcns per batch ...    57.05 (74.52%)
Maximum spatial batch extension              ...  22.21, 20.02, 14.73 au
Average spatial batch extension              ...   0.38,  0.37,  0.30 au

Time for grid setup =    0.163 sec

------------------------------
INITIAL GUESS: MODEL POTENTIAL
------------------------------
Loading Hartree-Fock densities                     ... done
Calculating cut-offs                               ... done
Setting up the integral package                    ... done
Initializing the effective Hamiltonian             ... done
Starting the Coulomb interaction                   ... done (   0.0 sec)
Reading the grid                                   ... done
Mapping shells                                     ... done
Starting the XC term evaluation                    ... done (   0.0 sec)
  promolecular density results
     # of electrons  =     23.997056786
     EX              =    -22.155784732
     EC              =     -0.745309296
     EX+EC           =    -22.901094028
Transforming the Hamiltonian                       ... done (   0.0 sec)
Diagonalizing the Hamiltonian                      ... done (   0.0 sec)
Back transforming the eigenvectors                 ... done (   0.0 sec)
Now organizing SCF variables                       ... done
                      ------------------
                      INITIAL GUESS DONE (   0.3 sec)
                      ------------------
--------------
SCF ITERATIONS
--------------
ITER       Energy         Delta-E        Max-DP      RMS-DP      [F,P]     Damp
               ***  Starting incremental Fock matrix formation  ***
  0   -220.3767664423   0.000000000000 0.08793871  0.00191630  0.4696509 0.7000
  1   -220.4993090619  -0.122542619559 0.12951903  0.00198071  0.2313651 0.7000
                               ***Turning on DIIS***
  2   -220.5488746696  -0.049565607733 0.26267173  0.00401017  0.0762308 0.0000
  3   -220.6227840719  -0.073909402322 0.02771437  0.00038654  0.1389601 0.7000
  4   -220.6305345627  -0.007750490720 0.03318788  0.00044991  0.1047471 0.7000
  5   -220.6360160470  -0.005481484307 0.09790877  0.00128640  0.0729974 0.0000
  6   -220.6441488845  -0.008132837484 0.00950732  0.00014483  0.0053234 0.0000
                      *** Initiating the SOSCF procedure ***
                           *** Shutting down DIIS ***
                      *** Re-Reading the Fockian *** 
                      *** Removing any level shift *** 
ITER      Energy       Delta-E        Grad      Rot      Max-DP    RMS-DP
  7   -220.64420733  -0.0000584490  0.000776  0.000776  0.006890  0.000100
               *** Restarting incremental Fock matrix formation ***
  8   -220.64422355  -0.0000162156  0.000445  0.001937  0.004679  0.000078
  9   -220.64423232  -0.0000087682  0.000226  0.002342  0.005961  0.000091
 10   -220.64423562  -0.0000033074  0.000125  0.000209  0.001243  0.000017
 11   -220.64423586  -0.0000002375  0.000078  0.000216  0.000383  0.000007
                 **** Energy Check signals convergence ****
              ***Rediagonalizing the Fockian in SOSCF/NRSCF***

               *****************************************************
               *                     SUCCESS                       *
               *           SCF CONVERGED AFTER  12 CYCLES          *
               *****************************************************


Setting up the DFT-NL grid :

General Integration Accuracy     IntAcc      ...  4.340
Radial Grid Type                 RadialGrid  ... Gauss-Chebyshev
Angular Grid (max. acc.)         AngularGrid ... Lebedev-110
Angular grid pruning method      GridPruning ... 3 (G Style)
Weight generation scheme         WeightScheme... Becke
Basis function cutoff            BFCut       ...    1.0000e-10
Integration weight cutoff        WCut        ...    1.0000e-14
Grids for H and He will be reduced by one unit

# of grid points (after initial pruning)     ...   8330 (   0.0 sec)
# of grid points (after weights+screening)   ...   8084 (   0.0 sec)
nearest neighbour list constructed           ...    0.0 sec
Grid point re-assignment to atoms done       ...    0.0 sec
Grid point division into batches done        ...    0.0 sec
Reduced shell lists constructed in    0.0 sec

Total number of grid points                  ...     8084
Total number of batches                      ...      131
Average number of points per batch           ...       61
Average number of grid points per atom       ...     1010
Average number of shells per batch           ...    38.00 (55.88%)
Average number of basis functions per batch  ...    92.29 (53.04%)
Average number of large shells per batch     ...    29.86 (78.57%)
Average number of large basis fcns per batch ...    71.86 (77.86%)
Maximum spatial batch extension              ...  21.33, 22.10, 18.34 au
Average spatial batch extension              ...   0.59,  0.58,  0.53 au

Final grid set up in    0.0 sec

-------------------------------------------------------------------------------
                         DFT-NL dispersion correction                          
-------------------------------------------------------------------------------

SC Energy -220.644236010 
NL    Energy 0.101345943 
SC+NL Energy -220.542890067 
NL done in    0.0 sec
-------------------------------------------------------------------------------

----------------
TOTAL SCF ENERGY
----------------

Total Energy       :         -220.54289007 Eh           -6001.27714 eV

Components:
Nuclear Repulsion  :           47.08883663 Eh            1281.35239 eV
Electronic Energy  :         -267.63172670 Eh           -7282.62953 eV
One Electron Energy:         -400.46051654 Eh          -10897.08465 eV
Two Electron Energy:          132.82878984 Eh            3614.45513 eV

Virial components:
Potential Energy   :         -440.11938669 Eh          -11976.25737 eV
Kinetic Energy     :          219.57649662 Eh            5974.98024 eV
Virial Ratio       :            2.00440117


DFT components:
N(Alpha)           :       11.999988498759 electrons
N(Beta)            :       11.999988498759 electrons
N(Total)           :       23.999976997518 electrons
E(X)               :      -16.176806926376 Eh       
E(C)               :       -0.778924407634 Eh       
NL Energy, E(C,NL) :        0.101345943063 Eh       
E(XC)              :      -16.854385390947 Eh       
DFET-embed. en.    :        0.000000000000 Eh       

---------------
SCF CONVERGENCE
---------------

  Last Energy change         ...   -1.4772e-07  Tolerance :   1.0000e-06
  Last MAX-Density change    ...    8.0516e-05  Tolerance :   1.0000e-05
  Last RMS-Density change    ...    1.4091e-06  Tolerance :   1.0000e-06
  Last Orbital Gradient      ...    2.9766e-05  Tolerance :   5.0000e-05
  Last Orbital Rotation      ...    3.3887e-05  Tolerance :   5.0000e-05

             **** THE GBW FILE WAS UPDATED (138.gbw) ****
             **** DENSITY FILE WAS UPDATED (138.scfp) ****
             **** ENERGY FILE WAS UPDATED (138.en.tmp) ****
             **** THE GBW FILE WAS UPDATED (138.gbw) ****
             **** DENSITY FILE WAS UPDATED (138.scfp) ****
----------------
ORBITAL ENERGIES
----------------

  NO   OCC          E(Eh)            E(eV) 
   0   2.0000     -38.713797     -1053.4560 
   1   2.0000     -14.376405      -391.2019 
   2   2.0000      -2.357914       -64.1621 
   3   2.0000      -1.261284       -34.3213 
   4   2.0000      -1.260578       -34.3021 
   5   2.0000      -1.257132       -34.2083 
   6   2.0000      -0.828422       -22.5425 
   7   2.0000      -0.580428       -15.7942 
   8   2.0000      -0.505618       -13.7586 
   9   2.0000      -0.457346       -12.4450 
  10   2.0000      -0.333285        -9.0691 
  11   2.0000      -0.247195        -6.7265 
  12   0.0000      -0.016879        -0.4593 
  13   0.0000       0.006423         0.1748 
  14   0.0000       0.012922         0.3516 
  15   0.0000       0.021270         0.5788 
  16   0.0000       0.045919         1.2495 
  17   0.0000       0.052669         1.4332 
  18   0.0000       0.069655         1.8954 
  19   0.0000       0.078446         2.1346 
  20   0.0000       0.096739         2.6324 
  21   0.0000       0.131193         3.5699 
  22   0.0000       0.144799         3.9402 
  23   0.0000       0.162411         4.4194 
  24   0.0000       0.172812         4.7025 
  25   0.0000       0.180943         4.9237 
  26   0.0000       0.185351         5.0437 
  27   0.0000       0.189993         5.1700 
  28   0.0000       0.224134         6.0990 
  29   0.0000       0.232281         6.3207 
  30   0.0000       0.238787         6.4977 
  31   0.0000       0.246153         6.6982 
  32   0.0000       0.251810         6.8521 
  33   0.0000       0.264995         7.2109 
  34   0.0000       0.275524         7.4974 
  35   0.0000       0.282175         7.6784 
  36   0.0000       0.298050         8.1103 
  37   0.0000       0.300663         8.1815 
  38   0.0000       0.313576         8.5328 
  39   0.0000       0.319785         8.7018 
  40   0.0000       0.332492         9.0476 
  41   0.0000       0.344804         9.3826 
  42   0.0000       0.369417        10.0523 
  43   0.0000       0.388015        10.5584 
  44   0.0000       0.396731        10.7956 
  45   0.0000       0.410648        11.1743 
  46   0.0000       0.413240        11.2448 
  47   0.0000       0.421319        11.4647 
  48   0.0000       0.432819        11.7776 
  49   0.0000       0.483146        13.1471 
  50   0.0000       0.517938        14.0938 
  51   0.0000       0.525611        14.3026 
  52   0.0000       0.541798        14.7431 
  53   0.0000       0.554571        15.0907 
  54   0.0000       0.573144        15.5960 
  55   0.0000       0.591303        16.0902 
  56   0.0000       0.608121        16.5478 
  57   0.0000       0.630921        17.1682 
  58   0.0000       0.736299        20.0357 
  59   0.0000       0.773917        21.0593 
  60   0.0000       0.777953        21.1692 
  61   0.0000       0.797128        21.6910 
  62   0.0000       0.806064        21.9341 
  63   0.0000       0.822249        22.3745 
  64   0.0000       0.844911        22.9912 
  65   0.0000       0.885631        24.0992 
  66   0.0000       0.900206        24.4959 
  67   0.0000       0.944991        25.7145 
  68   0.0000       0.950339        25.8600 
  69   0.0000       0.987998        26.8848 
  70   0.0000       1.093125        29.7455 
  71   0.0000       1.119564        30.4649 
  72   0.0000       1.130837        30.7716 
  73   0.0000       1.145648        31.1747 
  74   0.0000       1.151737        31.3404 
  75   0.0000       1.159812        31.5601 
  76   0.0000       1.171793        31.8861 
  77   0.0000       1.188414        32.3384 
  78   0.0000       1.211183        32.9580 
  79   0.0000       1.222332        33.2613 
  80   0.0000       1.247886        33.9567 
  81   0.0000       1.272830        34.6355 
  82   0.0000       1.294687        35.2302 
  83   0.0000       1.334969        36.3264 
  84   0.0000       1.337255        36.3885 
  85   0.0000       1.384360        37.6704 
  86   0.0000       1.406082        38.2614 
  87   0.0000       1.448735        39.4221 
  88   0.0000       1.462715        39.8025 
  89   0.0000       1.499530        40.8043 
  90   0.0000       1.557486        42.3813 
  91   0.0000       1.643666        44.7264 
  92   0.0000       1.710297        46.5395 
  93   0.0000       1.807757        49.1916 
  94   0.0000       1.869821        50.8804 
  95   0.0000       1.916540        52.1517 
  96   0.0000       1.934199        52.6322 
  97   0.0000       2.333888        63.5083 
  98   0.0000       2.390596        65.0514 
  99   0.0000       2.476865        67.3989 
 100   0.0000       2.527263        68.7703 
 101   0.0000       2.560222        69.6672 
 102   0.0000       2.639887        71.8350 
 103   0.0000       2.674223        72.7693 
 104   0.0000       2.758137        75.0527 
 105   0.0000       2.928146        79.6789 
 106   0.0000       2.982859        81.1677 
 107   0.0000       3.019786        82.1726 
 108   0.0000       3.032352        82.5145 
 109   0.0000       3.055445        83.1429 
 110   0.0000       3.195044        86.9416 
 111   0.0000       3.220503        87.6343 
 112   0.0000       3.235069        88.0307 
 113   0.0000       3.250128        88.4405 
 114   0.0000       3.282807        89.3297 
 115   0.0000       3.302380        89.8623 
 116   0.0000       3.330702        90.6330 
 117   0.0000       3.463729        94.2528 
 118   0.0000       3.495564        95.1191 
 119   0.0000       3.529862        96.0524 
 120   0.0000       3.581660        97.4619 
 121   0.0000       3.693777       100.5128 
 122   0.0000       3.733493       101.5935 
 123   0.0000       3.795235       103.2736 
 124   0.0000       3.807024       103.5944 
 125   0.0000       3.811787       103.7240 
 126   0.0000       3.815950       103.8373 
 127   0.0000       3.838511       104.4512 
 128   0.0000       3.854604       104.8891 
 129   0.0000       3.858022       104.9821 
 130   0.0000       3.894905       105.9857 
 131   0.0000       3.912064       106.4527 
 132   0.0000       3.931684       106.9866 
 133   0.0000       3.934322       107.0583 
 134   0.0000       3.970020       108.0297 
 135   0.0000       3.990466       108.5861 
 136   0.0000       4.021268       109.4243 
 137   0.0000       4.064872       110.6108 
 138   0.0000       4.116830       112.0246 
 139   0.0000       4.128870       112.3523 
 140   0.0000       4.181984       113.7976 
 141   0.0000       4.220762       114.8528 
 142   0.0000       4.360136       118.6453 
 143   0.0000       4.476383       121.8086 
 144   0.0000       4.523766       123.0979 
 145   0.0000       4.534531       123.3909 
 146   0.0000       4.592139       124.9584 
 147   0.0000       4.756921       129.4424 
 148   0.0000       4.825630       131.3121 
 149   0.0000       4.993707       135.8857 
 150   0.0000       5.018006       136.5469 
 151   0.0000       5.079689       138.2254 
 152   0.0000       5.278947       143.6475 
 153   0.0000       5.311726       144.5394 
 154   0.0000       5.312664       144.5649 
 155   0.0000       5.360939       145.8786 
 156   0.0000       5.455686       148.4568 
 157   0.0000       5.465113       148.7133 
 158   0.0000       5.581456       151.8791 
 159   0.0000       5.612767       152.7312 
 160   0.0000       5.664031       154.1261 
 161   0.0000       5.803720       157.9273 
 162   0.0000       5.819033       158.3440 
 163   0.0000       5.836187       158.8107 
 164   0.0000       5.842096       158.9715 
 165   0.0000       5.859390       159.4421 
 166   0.0000       5.897160       160.4699 
 167   0.0000       5.969632       162.4419 
 168   0.0000       6.120783       166.5550 
 169   0.0000       6.513228       177.2339 
 170   0.0000       6.518035       177.3647 
 171   0.0000       6.650694       180.9746 
 172   0.0000       6.718808       182.8281 
 173   0.0000      32.891766       895.0304 

                    ********************************
                    * MULLIKEN POPULATION ANALYSIS *
                    ********************************

-----------------------
MULLIKEN ATOMIC CHARGES
-----------------------
   0 H :    0.003283
   1 H :    0.091376
   2 H :   -0.067884
   3 H :    0.004762
   4 H :   -0.053085
   5 H :   -0.025692
   6 Na:    0.774605
   7 N :   -0.727365
Sum of atomic charges:   -0.0000000

--------------------------------
MULLIKEN REDUCED ORBITAL CHARGES
--------------------------------
  0 H s       :     0.940840  s :     0.940840
      pz      :     0.034168  p :     0.055626
      px      :     0.004837
      py      :     0.016622
      dz2     :     0.000059  d :     0.000250
      dxz     :     0.000045
      dyz     :     0.000091
      dx2y2   :     0.000024
      dxy     :     0.000031
  1 H s       :     0.898047  s :     0.898047
      pz      :     0.006091  p :     0.010389
      px      :     0.001137
      py      :     0.003161
      dz2     :     0.000008  d :     0.000188
      dxz     :     0.000036
      dyz     :     0.000083
      dx2y2   :     0.000042
      dxy     :     0.000019
  2 H s       :     1.049289  s :     1.049289
      pz      :     0.000978  p :     0.018511
      px      :     0.001652
      py      :     0.015881
      dz2     :    -0.000001  d :     0.000084
      dxz     :     0.000019
      dyz     :     0.000008
      dx2y2   :     0.000051
      dxy     :     0.000007
  3 H s       :     0.795946  s :     0.795946
      pz      :     0.073117  p :     0.193482
      px      :     0.030781
      py      :     0.089583
      dz2     :     0.001051  d :     0.005810
      dxz     :     0.001530
      dyz     :     0.000706
      dx2y2   :     0.001191
      dxy     :     0.001333
  4 H s       :     0.884448  s :     0.884448
      pz      :     0.103803  p :     0.168624
      px      :     0.021556
      py      :     0.043264
      dz2     :     0.000043  d :     0.000014
      dxz     :    -0.000001
      dyz     :    -0.000095
      dx2y2   :     0.000054
      dxy     :     0.000013
  5 H s       :     0.797194  s :     0.797194
      pz      :     0.080907  p :     0.222517
      px      :     0.033660
      py      :     0.107950
      dz2     :     0.000930  d :     0.005981
      dxz     :     0.001603
      dyz     :     0.000631
      dx2y2   :     0.001317
      dxy     :     0.001500
  6 Nas       :     4.112265  s :     4.112265
      pz      :     2.022984  p :     6.069709
      px      :     2.005699
      py      :     2.041026
      dz2     :     0.008859  d :     0.043420
      dxz     :     0.003905
      dyz     :     0.022413
      dx2y2   :     0.007195
      dxy     :     0.001048
  7 N s       :     3.590059  s :     3.590059
      pz      :     1.465278  p :     4.135833
      px      :     1.092982
      py      :     1.577573
      dz2     :     0.001293  d :     0.001287
      dxz     :     0.000269
      dyz     :    -0.006231
      dx2y2   :     0.004309
      dxy     :     0.001647
      f0      :    -0.000056  f :     0.000187
      f+1     :    -0.000074
      f-1     :     0.000041
      f+2     :     0.000114
      f-2     :    -0.000028
      f+3     :     0.000111
      f-3     :     0.000078


                     *******************************
                     * LOEWDIN POPULATION ANALYSIS *
                     *******************************

----------------------
LOEWDIN ATOMIC CHARGES
----------------------
   0 H :    0.042561
   1 H :    0.051817
   2 H :    0.033994
   3 H :   -0.300800
   4 H :   -0.064517
   5 H :   -0.302621
   6 Na:    0.499656
   7 N :    0.039911

-------------------------------
LOEWDIN REDUCED ORBITAL CHARGES
-------------------------------
  0 H s       :     0.870178  s :     0.870178
      pz      :     0.042542  p :     0.081948
      px      :     0.007774
      py      :     0.031631
      dz2     :     0.000910  d :     0.005313
      dxz     :     0.000853
      dyz     :     0.002927
      dx2y2   :     0.000205
      dxy     :     0.000418
  1 H s       :     0.882477  s :     0.882477
      pz      :     0.027754  p :     0.059363
      px      :     0.005701
      py      :     0.025908
      dz2     :     0.000116  d :     0.006343
      dxz     :     0.000733
      dyz     :     0.003912
      dx2y2   :     0.000746
      dxy     :     0.000836
  2 H s       :     0.873203  s :     0.873203
      pz      :     0.042428  p :     0.086475
      px      :     0.008095
      py      :     0.035951
      dz2     :     0.000079  d :     0.006329
      dxz     :     0.000685
      dyz     :     0.003912
      dx2y2   :     0.000814
      dxy     :     0.000839
  3 H s       :     0.702134  s :     0.702134
      pz      :     0.193201  p :     0.540764
      px      :     0.152066
      py      :     0.195498
      dz2     :     0.013091  d :     0.057902
      dxz     :     0.014714
      dyz     :     0.008437
      dx2y2   :     0.009018
      dxy     :     0.012643
  4 H s       :     0.756960  s :     0.756960
      pz      :     0.139124  p :     0.301260
      px      :     0.029269
      py      :     0.132867
      dz2     :     0.001435  d :     0.006297
      dxz     :     0.000951
      dyz     :     0.003005
      dx2y2   :     0.000427
      dxy     :     0.000478
  5 H s       :     0.704079  s :     0.704079
      pz      :     0.186877  p :     0.540889
      px      :     0.155785
      py      :     0.198227
      dz2     :     0.011216  d :     0.057653
      dxz     :     0.015436
      dyz     :     0.006877
      dx2y2   :     0.010078
      dxy     :     0.014046
  6 Nas       :     4.057920  s :     4.057920
      pz      :     2.105603  p :     6.221902
      px      :     2.014851
      py      :     2.101448
      dz2     :     0.077343  d :     0.220521
      dxz     :     0.029586
      dyz     :     0.075898
      dx2y2   :     0.030183
      dxy     :     0.007512
  7 N s       :     3.051609  s :     3.051609
      pz      :     1.295335  p :     3.726351
      px      :     1.105790
      py      :     1.325226
      dz2     :     0.048233  d :     0.176744
      dxz     :     0.051973
      dyz     :     0.038133
      dx2y2   :     0.027175
      dxy     :     0.011230
      f0      :     0.000718  f :     0.005385
      f+1     :     0.001369
      f-1     :     0.000043
      f+2     :     0.001782
      f-2     :     0.000726
      f+3     :     0.000217
      f-3     :     0.000530


                      *****************************
                      * MAYER POPULATION ANALYSIS *
                      *****************************

  NA   - Mulliken gross atomic population
  ZA   - Total nuclear charge
  QA   - Mulliken gross atomic charge
  VA   - Mayer's total valence
  BVA  - Mayer's bonded valence
  FA   - Mayer's free valence

  ATOM       NA         ZA         QA         VA         BVA        FA
  0 H      0.9967     1.0000     0.0033     1.1742     1.1742     0.0000
  1 H      0.9086     1.0000     0.0914     0.9802     0.9802    -0.0000
  2 H      1.0679     1.0000    -0.0679     0.9874     0.9874    -0.0000
  3 H      0.9952     1.0000     0.0048     1.3028     1.3028    -0.0000
  4 H      1.0531     1.0000    -0.0531     1.1078     1.1078     0.0000
  5 H      1.0257     1.0000    -0.0257     1.3530     1.3530     0.0000
  6 Na    10.2254    11.0000     0.7746     0.4305     0.4305    -0.0000
  7 N      7.7274     7.0000    -0.7274     2.8760     2.8760    -0.0000

  Mayer bond orders larger than 0.100000
B(  0-H ,  4-H ) :   1.0568 B(  1-H ,  2-H ) :   0.9751 B(  3-H ,  7-N ) :   1.2201 
B(  5-H ,  7-N ) :   1.2681 B(  6-Na,  7-N ) :   0.2983 

-------
TIMINGS
-------

Total SCF time: 0 days 0 hours 0 min 4 sec 

Total time                  ....       4.460 sec
Sum of individual times     ....       4.228 sec  ( 94.8%)

Fock matrix formation       ....       3.886 sec  ( 87.1%)
  XC integration            ....       0.454 sec  ( 11.7% of F)
    Basis function eval.    ....       0.057 sec  ( 12.6% of XC)
    Density eval.           ....       0.085 sec  ( 18.7% of XC)
    XC-Functional eval.     ....       0.030 sec  (  6.5% of XC)
    XC-Potential eval.      ....       0.181 sec  ( 39.9% of XC)
Diagonalization             ....       0.033 sec  (  0.7%)
Density matrix formation    ....       0.008 sec  (  0.2%)
Population analysis         ....       0.005 sec  (  0.1%)
Initial guess               ....       0.096 sec  (  2.1%)
Orbital Transformation      ....       0.000 sec  (  0.0%)
Orbital Orthonormalization  ....       0.000 sec  (  0.0%)
DIIS solution               ....       0.012 sec  (  0.3%)
SOSCF solution              ....       0.011 sec  (  0.3%)
Grid generation             ....       0.177 sec  (  4.0%)

-------------------------   --------------------
FINAL SINGLE POINT ENERGY      -220.542890066810
-------------------------   --------------------


                            ***************************************
                            *     ORCA property calculations      *
                            ***************************************

                                    ---------------------
                                    Active property flags
                                    ---------------------
   (+) Dipole Moment


------------------------------------------------------------------------------
                       ORCA ELECTRIC PROPERTIES CALCULATION
------------------------------------------------------------------------------

Dipole Moment Calculation                       ... on
Quadrupole Moment Calculation                   ... off
Polarizability Calculation                      ... off
GBWName                                         ... 138.gbw
Electron density file                           ... 138.scfp
The origin for moment calculation is the CENTER OF MASS  = ( 0.099325,  1.424424  0.377296)

-------------
DIPOLE MOMENT
-------------
                                X             Y             Z
Electronic contribution:      0.54105       6.99564      -0.96739
Nuclear contribution   :     -0.44551      -6.18803      -1.41111
                        -----------------------------------------
Total Dipole Moment    :      0.09554       0.80761      -2.37850
                        -----------------------------------------
Magnitude (a.u.)       :      2.51369
Magnitude (Debye)      :      6.38928



--------------------
Rotational spectrum 
--------------------
 
Rotational constants in cm-1:     0.993150     0.247328     0.211706 
Rotational constants in MHz : 29773.882147  7414.712908  6346.774487 

 Dipole components along the rotational axes: 
x,y,z [a.u.] :    -2.378497     0.807615    -0.095548 
x,y,z [Debye]:    -6.045658     2.052794    -0.242863 

 

Timings for individual modules:

Sum of individual times         ...        5.518 sec (=   0.092 min)
GTO integral calculation        ...        0.660 sec (=   0.011 min)  12.0 %
SCF iterations                  ...        4.857 sec (=   0.081 min)  88.0 %
                             ****ORCA TERMINATED NORMALLY****
TOTAL RUN TIME: 0 days 0 hours 0 minutes 5 seconds 965 msec
