
                                 *****************
                                 * O   R   C   A *
                                 *****************

           --- An Ab Initio, DFT and Semiempirical electronic structure package ---

                  #######################################################
                  #                        -***-                        #
                  #          Department of theory and spectroscopy      #
                  #               Directorship: Frank Neese             #
                  #        Max Planck Institute fuer Kohlenforschung    #
                  #                Kaiser Wilhelm Platz 1               #
                  #                 D-45470 Muelheim/Ruhr               #
                  #                      Germany                        #
                  #                                                     #
                  #                  All rights reserved                #
                  #                        -***-                        #
                  #######################################################


                         Program Version 4.2.0 -  RELEASE  -


 With contributions from (in alphabetic order):
   Daniel Aravena         : Magnetic Suceptibility
   Michael Atanasov       : Ab Initio Ligand Field Theory (pilot matlab implementation)
   Alexander A. Auer      : GIAO ZORA, VPT2
   Ute Becker             : Parallelization
   Giovanni Bistoni       : ED, misc. LED, open-shell LED, HFLED
   Martin Brehm           : Molecular dynamics
   Dmytro Bykov           : SCF Hessian
   Vijay G. Chilkuri      : MRCI spin determinant printing, contributions to CSF-ICE
   Dipayan Datta          : RHF DLPNO-CCSD density
   Achintya Kumar Dutta   : EOM-CC, STEOM-CC
   Dmitry Ganyushin       : Spin-Orbit,Spin-Spin,Magnetic field MRCI
   Miquel Garcia          : C-PCM Hessian, Gaussian charge scheme
   Yang Guo               : DLPNO-NEVPT2, CIM, IAO-localization
   Andreas Hansen         : Spin unrestricted coupled pair/coupled cluster methods
   Benjamin Helmich-Paris : CASSCF linear response (MC-RPA)
   Lee Huntington         : MR-EOM, pCC
   Robert Izsak           : Overlap fitted RIJCOSX, COSX-SCS-MP3, EOM
   Christian Kollmar      : KDIIS, OOCD, Brueckner-CCSD(T), CCSD density
   Simone Kossmann        : Meta GGA functionals, TD-DFT gradient, OOMP2, MP2 Hessian
   Martin Krupicka        : AUTO-CI
   Lucas Lang             : DCDCAS
   Dagmar Lenk            : GEPOL surface, SMD
   Dimitrios Liakos       : Extrapolation schemes; Compound Job, initial MDCI parallelization
   Dimitrios Manganas     : Further ROCIS development; embedding schemes
   Dimitrios Pantazis     : SARC Basis sets
   Taras Petrenko         : DFT Hessian,TD-DFT gradient, ASA, ECA, R-Raman, ABS, FL, XAS/XES, NRVS
   Peter Pinski           : DLPNO-MP2, DLPNO-MP2 Gradient
   Christoph Reimann      : Effective Core Potentials
   Marius Retegan         : Local ZFS, SOC
   Christoph Riplinger    : Optimizer, TS searches, QM/MM, DLPNO-CCSD(T), (RO)-DLPNO pert. Triples
   Tobias Risthaus        : Range-separated hybrids, TD-DFT gradient, RPA, STAB
   Michael Roemelt        : Original ROCIS implementation
   Masaaki Saitow         : Open-shell DLPNO-CCSD energy and density
   Barbara Sandhoefer     : DKH picture change effects
   Avijit Sen             : IP-ROCIS
   Kantharuban Sivalingam : CASSCF convergence, NEVPT2, FIC-MRCI
   Bernardo de Souza      : ESD, SOC TD-DFT
   Georgi Stoychev        : AutoAux, RI-MP2 NMR
   Willem Van den Heuvel  : Paramagnetic NMR
   Boris Wezisla          : Elementary symmetry handling
   Frank Wennmohs         : Technical directorship


 We gratefully acknowledge several colleagues who have allowed us to
 interface, adapt or use parts of their codes:
   Stefan Grimme, W. Hujo, H. Kruse,             : VdW corrections, initial TS optimization,
                  C. Bannwarth                     DFT functionals, gCP, sTDA/sTD-DF
   Ed Valeev, F. Pavosevic, A. Kumar             : LibInt (2-el integral package), F12 methods
   Garnet Chan, S. Sharma, J. Yang, R. Olivares  : DMRG
   Ulf Ekstrom                                   : XCFun DFT Library
   Mihaly Kallay                                 : mrcc  (arbitrary order and MRCC methods)
   Andreas Klamt, Michael Diedenhofen            : otool_cosmo (COSMO solvation model)
   Jiri Pittner, Ondrej Demel                    : Mk-CCSD
   Frank Weinhold                                : gennbo (NPA and NBO analysis)
   Christopher J. Cramer and Donald G. Truhlar   : smd solvation model
   Lars Goerigk                                  : TD-DFT with DH, B97 family of functionals
   V. Asgeirsson, H. Jonsson                     : NEB implementation
   FAccTs GmbH                                   : IRC, NEB, NEB-TS, Multilevel, MM, QM/MM, CI optimization
   S Lehtola, MJT Oliveira, MAL Marques          : LibXC Library


 Your calculation uses the libint2 library for the computation of 2-el integrals
 For citations please refer to: http://libint.valeyev.net

 Your ORCA version has been built with support for libXC version: 4.2.3
 For citations please refer to: https://tddft.org/programs/libxc/

 This ORCA versions uses:
   CBLAS   interface :  Fast vector & matrix operations
   LAPACKE interface :  Fast linear algebra routines
   SCALAPACK package :  Parallel linear algebra routines


Your calculation utilizes the DFT-NL dispersion correction.
Cite in your paper:
Vydrov, O. A.; Van Voorhis, T. J. Chem. Phys. 2010, 133, 244103
Hujo, W.; Grimme, S. J. Chem. Theory Comput. 2011, 7, 3866 
   

----- Orbital basis set information -----
Your calculation utilizes the basis: def2-TZVPPD
   F. Weigend and R. Ahlrichs, Phys. Chem. Chem. Phys. 7, 3297 (2005).
   D. Rappoport and F. Furche, J. Chem. Phys. 133 134105 (2010).

----- AuxJK basis set information -----
Your calculation utilizes the auxiliary basis: def2/JK
   H-Ba, Hf-Rn: F. Weigend, J. Comput. Chem. 29, 167 (2008).

================================================================================
                                        WARNINGS
                       Please study these warnings very carefully!
================================================================================


INFO   : the flag for use of LIBINT has been found!

================================================================================
                                       INPUT FILE
================================================================================
NAME = 170_c.in
|  1> #
|  2> # 170_c wB97M-V/Def2-TZVPPD
|  3> #
|  4> ! wb97m-v def2-tzvppd def2/jk grid4 nofinalgrid
|  5> 
|  6> *xyz 0 1
|  7> C          0.00000        0.00000        0.00000
|  8> H          0.63307        0.63307       -0.63307
|  9> H         -0.63307       -0.63307       -0.63307
| 10> H          0.63307       -0.63307        0.63307
| 11> H         -0.63307        0.63307        0.63307
| 12> *
| 13> 
| 14> %maxcore 5000
| 15> 
| 16> %pal
| 17> nprocs = 24
| 18> end
| 19> 
| 20> 
| 21>                          ****END OF INPUT****
================================================================================

                       ****************************
                       * Single Point Calculation *
                       ****************************

---------------------------------
CARTESIAN COORDINATES (ANGSTROEM)
---------------------------------
  C      0.000000    0.000000    0.000000
  H      0.633070    0.633070   -0.633070
  H     -0.633070   -0.633070   -0.633070
  H      0.633070   -0.633070    0.633070
  H     -0.633070    0.633070    0.633070

----------------------------
CARTESIAN COORDINATES (A.U.)
----------------------------
  NO LB      ZA    FRAG     MASS         X           Y           Z
   0 C     6.0000    0    12.011    0.000000    0.000000    0.000000
   1 H     1.0000    0     1.008    1.196329    1.196329   -1.196329
   2 H     1.0000    0     1.008   -1.196329   -1.196329   -1.196329
   3 H     1.0000    0     1.008    1.196329   -1.196329    1.196329
   4 H     1.0000    0     1.008   -1.196329    1.196329    1.196329

--------------------------------
INTERNAL COORDINATES (ANGSTROEM)
--------------------------------
 C      0   0   0     0.000000000000     0.00000000     0.00000000
 H      1   0   0     1.096509404748     0.00000000     0.00000000
 H      1   2   0     1.096509404748   109.47122063     0.00000000
 H      1   2   3     1.096509404748   109.47122063   120.00000000
 H      1   2   3     1.096509404748   109.47122063   240.00000000

---------------------------
INTERNAL COORDINATES (A.U.)
---------------------------
 C      0   0   0     0.000000000000     0.00000000     0.00000000
 H      1   0   0     2.072102478242     0.00000000     0.00000000
 H      1   2   0     2.072102478242   109.47122063     0.00000000
 H      1   2   3     2.072102478242   109.47122063   120.00000000
 H      1   2   3     2.072102478242   109.47122063   240.00000000

---------------------
BASIS SET INFORMATION
---------------------
There are 2 groups of distinct atoms

 Group   1 Type C   : 12s6p3d1f contracted to 6s3p3d1f pattern {621111/411/111/1}
 Group   2 Type H   : 5s3p1d contracted to 3s3p1d pattern {311/111/1}

Atom   0C    basis set group =>   1
Atom   1H    basis set group =>   2
Atom   2H    basis set group =>   2
Atom   3H    basis set group =>   2
Atom   4H    basis set group =>   2
----------------------------------
AUXILIARY/JK BASIS SET INFORMATION
----------------------------------
There are 2 groups of distinct atoms

 Group   1 Type C   : 14s10p6d2f1g contracted to 10s8p5d1f1g pattern {5111111111/31111111/21111/2/1}
 Group   2 Type H   : 4s2p2d contracted to 2s2p2d pattern {31/11/11}

Atom   0C    basis set group =>   1
Atom   1H    basis set group =>   2
Atom   2H    basis set group =>   2
Atom   3H    basis set group =>   2
Atom   4H    basis set group =>   2


           ************************************************************
           *        Program running with 24 parallel MPI-processes    *
           *              working on a common directory               *
           ************************************************************
------------------------------------------------------------------------------
                           ORCA GTO INTEGRAL CALCULATION
------------------------------------------------------------------------------

                         BASIS SET STATISTICS AND STARTUP INFO

 # of primitive gaussian shells          ...   58
 # of primitive gaussian functions       ...  128
 # of contracted shells                  ...   41
 # of contracted basis functions         ...  105
 Highest angular momentum                ...    3
 Maximum contraction depth               ...    6
 Integral package used                   ... LIBINT
 Integral threshhold            Thresh   ...  1.000e-10
 Primitive cut-off              TCut     ...  1.000e-11


------------------------------ INTEGRAL EVALUATION ----------------------------


 * One electron integrals 
 Pre-screening matrix                    ... done
 Shell pair data                         ... done (   0.000 sec)



           ************************************************************
           *        Program running with 24 parallel MPI-processes    *
           *              working on a common directory               *
           ************************************************************
-------------------------------------------------------------------------------
                                 ORCA SCF
-------------------------------------------------------------------------------

------------
SCF SETTINGS
------------
Hamiltonian:
 Density Functional     Method          .... DFT(GTOs)
 Exchange Functional    Exchange        .... WB97M-V
 Correlation Functional Correlation     .... WB97M-V
 Gradients option       PostSCFGGA      .... off
 Hybrid DFT is turned on
   Fraction HF Exchange ScalHFX         ....  0.150000
   Scaling of DF-GGA-X  ScalDFX         ....  0.000000
   Scaling of DF-GGA-C  ScalDFC         ....  1.000000
   Scaling of DF-LDA-C  ScalLDAC        ....  1.000000
   Perturbative correction              ....  0.000000
   Density functional embedding theory  .... OFF
 Long-range corrected/Screened/Range-Separated Hybrid DFT is turned on
   Amount of maximum screened exact exchange              ....  0.850000
   Range separation parameter mu (erf(mu*r12)/r12)        ....  0.300000
   NL short-range parameter             ....  6.000000
   NL long-range parameter              ....  0.010000


General Settings:
 Integral files         IntName         .... 170_c
 Hartree-Fock type      HFTyp           .... RHF
 Total Charge           Charge          ....    0
 Multiplicity           Mult            ....    1
 Number of Electrons    NEL             ....   10
 Basis Dimension        Dim             ....  105
 Nuclear Repulsion      ENuc            ....     13.3556302860 Eh

Convergence Acceleration:
 DIIS                   CNVDIIS         .... on
   Start iteration      DIISMaxIt       ....    12
   Startup error        DIISStart       ....  0.200000
   # of expansion vecs  DIISMaxEq       ....     5
   Bias factor          DIISBfac        ....   1.050
   Max. coefficient     DIISMaxC        ....  10.000
 Newton-Raphson         CNVNR           .... off
 SOSCF                  CNVSOSCF        .... on
   Start iteration      SOSCFMaxIt      ....   150
   Startup grad/error   SOSCFStart      ....  0.003300
 Level Shifting         CNVShift        .... on
   Level shift para.    LevelShift      ....    0.2500
   Turn off err/grad.   ShiftErr        ....    0.0010
 Zerner damping         CNVZerner       .... off
 Static damping         CNVDamp         .... on
   Fraction old density DampFac         ....    0.7000
   Max. Damping (<1)    DampMax         ....    0.9800
   Min. Damping (>=0)   DampMin         ....    0.0000
   Turn off err/grad.   DampErr         ....    0.1000
 Fernandez-Rico         CNVRico         .... off

SCF Procedure:
 Maximum # iterations   MaxIter         ....   125
 SCF integral mode      SCFMode         .... Direct
   Integral package                     .... LIBINT
 Reset frequency        DirectResetFreq ....    20
 Integral Threshold     Thresh          ....  1.000e-10 Eh
 Primitive CutOff       TCut            ....  1.000e-11 Eh

Convergence Tolerance:
 Convergence Check Mode ConvCheckMode   .... Total+1el-Energy
 Convergence forced     ConvForced      .... 0
 Energy Change          TolE            ....  1.000e-06 Eh
 1-El. energy change                    ....  1.000e-03 Eh
 Orbital Gradient       TolG            ....  5.000e-05
 Orbital Rotation angle TolX            ....  5.000e-05
 DIIS Error             TolErr          ....  1.000e-06


Diagonalization of the overlap matrix:
Smallest eigenvalue                        ... 3.157e-05
Time for diagonalization                   ...    0.003 sec
Threshold for overlap eigenvalues          ... 1.000e-08
Number of eigenvalues below threshold      ... 0
Time for construction of square roots      ...    0.002 sec
Total time needed                          ...    0.005 sec

-------------------
DFT GRID GENERATION
-------------------

General Integration Accuracy     IntAcc      ...  4.670
Radial Grid Type                 RadialGrid  ... Gauss-Chebyshev
Angular Grid (max. acc.)         AngularGrid ... Lebedev-302
Angular grid pruning method      GridPruning ... 3 (G Style)
Weight generation scheme         WeightScheme... Becke
Basis function cutoff            BFCut       ...    1.0000e-10
Integration weight cutoff        WCut        ...    1.0000e-14
Grids for H and He will be reduced by one unit

# of grid points (after initial pruning)     ...  19788 (   0.0 sec)
# of grid points (after weights+screening)   ...  19280 (   0.0 sec)
nearest neighbour list constructed           ...    0.0 sec
Grid point re-assignment to atoms done       ...    0.0 sec
Grid point division into batches done        ...    0.1 sec
Reduced shell lists constructed in    0.1 sec

Total number of grid points                  ...    19280
Total number of batches                      ...      304
Average number of points per batch           ...       63
Average number of grid points per atom       ...     3856
Average number of shells per batch           ...    37.79 (92.16%)
Average number of basis functions per batch  ...    97.21 (92.59%)
Average number of large shells per batch     ...    37.21 (98.49%)
Average number of large basis fcns per batch ...    96.07 (98.82%)
Maximum spatial batch extension              ...   1.25,  1.25,  1.25 au
Average spatial batch extension              ...   0.05,  0.05,  0.04 au

Time for grid setup =    0.110 sec

------------------------------
INITIAL GUESS: MODEL POTENTIAL
------------------------------
Loading Hartree-Fock densities                     ... done
Calculating cut-offs                               ... done
Setting up the integral package                    ... done
Initializing the effective Hamiltonian             ... done
Starting the Coulomb interaction                   ... done (   0.0 sec)
Reading the grid                                   ... done
Mapping shells                                     ... done
Starting the XC term evaluation                    ... done (   0.0 sec)
  promolecular density results
     # of electrons  =      9.998043414
     EX              =     -6.263246934
     EC              =     -0.294091597
     EX+EC           =     -6.557338531
Transforming the Hamiltonian                       ... done (   0.0 sec)
Diagonalizing the Hamiltonian                      ... done (   0.0 sec)
Back transforming the eigenvectors                 ... done (   0.0 sec)
Now organizing SCF variables                       ... done
                      ------------------
                      INITIAL GUESS DONE (   0.2 sec)
                      ------------------
--------------
SCF ITERATIONS
--------------
ITER       Energy         Delta-E        Max-DP      RMS-DP      [F,P]     Damp
               ***  Starting incremental Fock matrix formation  ***
  0    -40.4540337532   0.000000000000 0.03884412  0.00118060  0.2201359 0.7000
  1    -40.4870155376  -0.032981784395 0.03684455  0.00097284  0.1301140 0.7000
                               ***Turning on DIIS***
  2    -40.5038340821  -0.016818544482 0.09639244  0.00225869  0.0649821 0.0000
  3    -40.5293187405  -0.025484658375 0.02063776  0.00050342  0.0531383 0.0000
  4    -40.5338357054  -0.004516964910 0.00263371  0.00009522  0.0084026 0.0000
                      *** Initiating the SOSCF procedure ***
                           *** Shutting down DIIS ***
                      *** Re-Reading the Fockian *** 
                      *** Removing any level shift *** 
ITER      Energy       Delta-E        Grad      Rot      Max-DP    RMS-DP
  5    -40.53395212  -0.0001164181  0.000376  0.000376  0.000686  0.000035
               *** Restarting incremental Fock matrix formation ***
  6    -40.53395673  -0.0000046019  0.000116  0.000141  0.000486  0.000025
  7    -40.53395685  -0.0000001290  0.000087  0.000042  0.000112  0.000006
                 **** Energy Check signals convergence ****
              ***Rediagonalizing the Fockian in SOSCF/NRSCF***

               *****************************************************
               *                     SUCCESS                       *
               *           SCF CONVERGED AFTER   8 CYCLES          *
               *****************************************************


Setting up the DFT-NL grid :

General Integration Accuracy     IntAcc      ...  4.340
Radial Grid Type                 RadialGrid  ... Gauss-Chebyshev
Angular Grid (max. acc.)         AngularGrid ... Lebedev-110
Angular grid pruning method      GridPruning ... 3 (G Style)
Weight generation scheme         WeightScheme... Becke
Basis function cutoff            BFCut       ...    1.0000e-10
Integration weight cutoff        WCut        ...    1.0000e-14
Grids for H and He will be reduced by one unit

# of grid points (after initial pruning)     ...   4832 (   0.0 sec)
# of grid points (after weights+screening)   ...   4636 (   0.0 sec)
nearest neighbour list constructed           ...    0.0 sec
Grid point re-assignment to atoms done       ...    0.0 sec
Grid point division into batches done        ...    0.0 sec
Reduced shell lists constructed in    0.0 sec

Total number of grid points                  ...     4636
Total number of batches                      ...       74
Average number of points per batch           ...       62
Average number of grid points per atom       ...      927
Average number of shells per batch           ...    32.80 (80.00%)
Average number of basis functions per batch  ...    84.00 (80.00%)
Average number of large shells per batch     ...    32.80 (100.00%)
Average number of large basis fcns per batch ...    84.00 (100.00%)
Maximum spatial batch extension              ...   1.64,  1.64,  1.64 au
Average spatial batch extension              ...   0.09,  0.09,  0.09 au

Final grid set up in    0.0 sec

-------------------------------------------------------------------------------
                         DFT-NL dispersion correction                          
-------------------------------------------------------------------------------

SC Energy -40.533956943 
NL    Energy 0.041344364 
SC+NL Energy -40.492612579 
NL done in    0.0 sec
-------------------------------------------------------------------------------

----------------
TOTAL SCF ENERGY
----------------

Total Energy       :          -40.49261258 Eh           -1101.86001 eV

Components:
Nuclear Repulsion  :           13.35563029 Eh             363.42518 eV
Electronic Energy  :          -53.84824286 Eh           -1465.28518 eV
One Electron Energy:          -79.66648647 Eh           -2167.83531 eV
Two Electron Energy:           25.81824360 Eh             702.55013 eV

Virial components:
Potential Energy   :          -80.78222898 Eh           -2198.19620 eV
Kinetic Energy     :           40.28961640 Eh            1096.33620 eV
Virial Ratio       :            2.00503842


DFT components:
N(Alpha)           :        5.000049504391 electrons
N(Beta)            :        5.000049504391 electrons
N(Total)           :       10.000099008781 electrons
E(X)               :       -4.346886672276 Eh       
E(C)               :       -0.255237839125 Eh       
NL Energy, E(C,NL) :        0.041344364431 Eh       
E(XC)              :       -4.560780146970 Eh       
DFET-embed. en.    :        0.000000000000 Eh       

---------------
SCF CONVERGENCE
---------------

  Last Energy change         ...   -8.8807e-08  Tolerance :   1.0000e-06
  Last MAX-Density change    ...    5.8648e-05  Tolerance :   1.0000e-05
  Last RMS-Density change    ...    2.9299e-06  Tolerance :   1.0000e-06
  Last Orbital Gradient      ...    5.1123e-06  Tolerance :   5.0000e-05
  Last Orbital Rotation      ...    5.7212e-06  Tolerance :   5.0000e-05

             **** THE GBW FILE WAS UPDATED (170_c.gbw) ****
             **** DENSITY FILE WAS UPDATED (170_c.scfp) ****
             **** ENERGY FILE WAS UPDATED (170_c.en.tmp) ****
             **** THE GBW FILE WAS UPDATED (170_c.gbw) ****
             **** DENSITY FILE WAS UPDATED (170_c.scfp) ****
----------------
ORBITAL ENERGIES
----------------

  NO   OCC          E(Eh)            E(eV) 
   0   2.0000     -10.327479      -281.0250 
   1   2.0000      -0.812776       -22.1168 
   2   2.0000      -0.494449       -13.4546 
   3   2.0000      -0.494449       -13.4546 
   4   2.0000      -0.494449       -13.4546 
   5   0.0000       0.044967         1.2236 
   6   0.0000       0.132954         3.6179 
   7   0.0000       0.132954         3.6179 
   8   0.0000       0.132955         3.6179 
   9   0.0000       0.160436         4.3657 
  10   0.0000       0.160436         4.3657 
  11   0.0000       0.160437         4.3657 
  12   0.0000       0.199802         5.4369 
  13   0.0000       0.199802         5.4369 
  14   0.0000       0.256247         6.9728 
  15   0.0000       0.303135         8.2487 
  16   0.0000       0.332061         9.0359 
  17   0.0000       0.332061         9.0359 
  18   0.0000       0.332061         9.0359 
  19   0.0000       0.343804         9.3554 
  20   0.0000       0.343804         9.3554 
  21   0.0000       0.343808         9.3555 
  22   0.0000       0.352531         9.5928 
  23   0.0000       0.352531         9.5929 
  24   0.0000       0.352533         9.5929 
  25   0.0000       0.452239        12.3061 
  26   0.0000       0.452239        12.3061 
  27   0.0000       0.535704        14.5773 
  28   0.0000       0.535704        14.5773 
  29   0.0000       0.535704        14.5773 
  30   0.0000       0.661153        17.9909 
  31   0.0000       0.746047        20.3010 
  32   0.0000       0.765835        20.8394 
  33   0.0000       0.765837        20.8395 
  34   0.0000       0.765844        20.8397 
  35   0.0000       0.853581        23.2271 
  36   0.0000       0.853581        23.2271 
  37   0.0000       1.100091        29.9350 
  38   0.0000       1.100091        29.9350 
  39   0.0000       1.100091        29.9350 
  40   0.0000       1.108971        30.1766 
  41   0.0000       1.108971        30.1766 
  42   0.0000       1.108971        30.1766 
  43   0.0000       1.279774        34.8244 
  44   0.0000       1.279775        34.8244 
  45   0.0000       1.279775        34.8245 
  46   0.0000       1.524202        41.4756 
  47   0.0000       1.551913        42.2297 
  48   0.0000       1.551913        42.2297 
  49   0.0000       1.645326        44.7716 
  50   0.0000       1.645328        44.7716 
  51   0.0000       1.645329        44.7717 
  52   0.0000       1.832085        49.8536 
  53   0.0000       2.006223        54.5921 
  54   0.0000       2.006224        54.5921 
  55   0.0000       2.006224        54.5921 
  56   0.0000       2.726462        74.1908 
  57   0.0000       2.726463        74.1908 
  58   0.0000       2.726463        74.1908 
  59   0.0000       2.748224        74.7830 
  60   0.0000       2.936568        79.9081 
  61   0.0000       2.936568        79.9081 
  62   0.0000       2.936568        79.9081 
  63   0.0000       3.006402        81.8084 
  64   0.0000       3.006402        81.8084 
  65   0.0000       3.006402        81.8084 
  66   0.0000       3.029041        82.4244 
  67   0.0000       3.029041        82.4244 
  68   0.0000       3.405997        92.6819 
  69   0.0000       3.405997        92.6819 
  70   0.0000       3.405997        92.6819 
  71   0.0000       3.487145        94.8900 
  72   0.0000       3.487145        94.8900 
  73   0.0000       3.487145        94.8900 
  74   0.0000       3.567556        97.0781 
  75   0.0000       3.567556        97.0781 
  76   0.0000       3.784243       102.9745 
  77   0.0000       3.996437       108.7486 
  78   0.0000       3.996437       108.7486 
  79   0.0000       4.047926       110.1497 
  80   0.0000       4.047926       110.1497 
  81   0.0000       4.047927       110.1497 
  82   0.0000       4.207044       114.4795 
  83   0.0000       4.207044       114.4795 
  84   0.0000       4.207044       114.4795 
  85   0.0000       4.304289       117.1256 
  86   0.0000       4.304289       117.1256 
  87   0.0000       4.304289       117.1257 
  88   0.0000       4.625323       125.8614 
  89   0.0000       4.625323       125.8614 
  90   0.0000       4.625323       125.8614 
  91   0.0000       5.065803       137.8475 
  92   0.0000       5.161328       140.4469 
  93   0.0000       5.175481       140.8320 
  94   0.0000       5.175481       140.8320 
  95   0.0000       5.175481       140.8320 
  96   0.0000       5.331557       145.0790 
  97   0.0000       5.331557       145.0790 
  98   0.0000       5.368960       146.0968 
  99   0.0000       5.368960       146.0968 
 100   0.0000       5.368961       146.0968 
 101   0.0000       5.619267       152.9080 
 102   0.0000       5.619267       152.9080 
 103   0.0000       5.619268       152.9080 
 104   0.0000      24.075698       655.1331 

                    ********************************
                    * MULLIKEN POPULATION ANALYSIS *
                    ********************************

-----------------------
MULLIKEN ATOMIC CHARGES
-----------------------
   0 C :   -0.726166
   1 H :    0.181542
   2 H :    0.181542
   3 H :    0.181541
   4 H :    0.181541
Sum of atomic charges:    0.0000000

--------------------------------
MULLIKEN REDUCED ORBITAL CHARGES
--------------------------------
  0 C s       :     3.319692  s :     3.319692
      pz      :     1.117743  p :     3.353230
      px      :     1.117744
      py      :     1.117744
      dz2     :     0.000000  d :     0.052833
      dxz     :     0.017611
      dyz     :     0.017611
      dx2y2   :     0.000000
      dxy     :     0.017611
      f0      :    -0.000060  f :     0.000411
      f+1     :    -0.000023
      f-1     :    -0.000023
      f+2     :    -0.000000
      f-2     :     0.000592
      f+3     :    -0.000038
      f-3     :    -0.000038
  1 H s       :     0.785910  s :     0.785910
      pz      :     0.010174  p :     0.030522
      px      :     0.010174
      py      :     0.010174
      dz2     :     0.000433  d :     0.002025
      dxz     :     0.000386
      dyz     :     0.000386
      dx2y2   :     0.000433
      dxy     :     0.000386
  2 H s       :     0.785910  s :     0.785910
      pz      :     0.010174  p :     0.030522
      px      :     0.010174
      py      :     0.010174
      dz2     :     0.000433  d :     0.002025
      dxz     :     0.000386
      dyz     :     0.000386
      dx2y2   :     0.000433
      dxy     :     0.000386
  3 H s       :     0.785911  s :     0.785911
      pz      :     0.010174  p :     0.030523
      px      :     0.010174
      py      :     0.010174
      dz2     :     0.000433  d :     0.002025
      dxz     :     0.000386
      dyz     :     0.000386
      dx2y2   :     0.000433
      dxy     :     0.000386
  4 H s       :     0.785912  s :     0.785912
      pz      :     0.010174  p :     0.030523
      px      :     0.010174
      py      :     0.010174
      dz2     :     0.000433  d :     0.002025
      dxz     :     0.000386
      dyz     :     0.000386
      dx2y2   :     0.000433
      dxy     :     0.000386


                     *******************************
                     * LOEWDIN POPULATION ANALYSIS *
                     *******************************

----------------------
LOEWDIN ATOMIC CHARGES
----------------------
   0 C :    0.251053
   1 H :   -0.062763
   2 H :   -0.062763
   3 H :   -0.062763
   4 H :   -0.062763

-------------------------------
LOEWDIN REDUCED ORBITAL CHARGES
-------------------------------
  0 C s       :     2.680513  s :     2.680513
      pz      :     0.944291  p :     2.832873
      px      :     0.944291
      py      :     0.944291
      dz2     :     0.000000  d :     0.216797
      dxz     :     0.072266
      dyz     :     0.072266
      dx2y2   :     0.000000
      dxy     :     0.072266
      f0      :     0.004336  f :     0.018764
      f+1     :     0.001626
      f-1     :     0.001626
      f+2     :     0.000000
      f-2     :     0.005755
      f+3     :     0.002710
      f-3     :     0.002710
  1 H s       :     0.727478  s :     0.727478
      pz      :     0.102047  p :     0.306141
      px      :     0.102047
      py      :     0.102047
      dz2     :     0.005962  d :     0.029144
      dxz     :     0.005740
      dyz     :     0.005740
      dx2y2   :     0.005962
      dxy     :     0.005740
  2 H s       :     0.727478  s :     0.727478
      pz      :     0.102047  p :     0.306141
      px      :     0.102047
      py      :     0.102047
      dz2     :     0.005962  d :     0.029144
      dxz     :     0.005740
      dyz     :     0.005740
      dx2y2   :     0.005962
      dxy     :     0.005740
  3 H s       :     0.727478  s :     0.727478
      pz      :     0.102047  p :     0.306141
      px      :     0.102047
      py      :     0.102047
      dz2     :     0.005962  d :     0.029144
      dxz     :     0.005740
      dyz     :     0.005740
      dx2y2   :     0.005962
      dxy     :     0.005740
  4 H s       :     0.727478  s :     0.727478
      pz      :     0.102047  p :     0.306141
      px      :     0.102047
      py      :     0.102047
      dz2     :     0.005962  d :     0.029144
      dxz     :     0.005740
      dyz     :     0.005740
      dx2y2   :     0.005962
      dxy     :     0.005740


                      *****************************
                      * MAYER POPULATION ANALYSIS *
                      *****************************

  NA   - Mulliken gross atomic population
  ZA   - Total nuclear charge
  QA   - Mulliken gross atomic charge
  VA   - Mayer's total valence
  BVA  - Mayer's bonded valence
  FA   - Mayer's free valence

  ATOM       NA         ZA         QA         VA         BVA        FA
  0 C      6.7262     6.0000    -0.7262     3.8315     3.8315     0.0000
  1 H      0.8185     1.0000     0.1815     0.9750     0.9750     0.0000
  2 H      0.8185     1.0000     0.1815     0.9750     0.9750     0.0000
  3 H      0.8185     1.0000     0.1815     0.9750     0.9750     0.0000
  4 H      0.8185     1.0000     0.1815     0.9750     0.9750     0.0000

  Mayer bond orders larger than 0.100000
B(  0-C ,  1-H ) :   0.9579 B(  0-C ,  2-H ) :   0.9579 B(  0-C ,  3-H ) :   0.9579 
B(  0-C ,  4-H ) :   0.9579 

-------
TIMINGS
-------

Total SCF time: 0 days 0 hours 0 min 1 sec 

Total time                  ....       1.852 sec
Sum of individual times     ....       1.661 sec  ( 89.7%)

Fock matrix formation       ....       1.430 sec  ( 77.2%)
  XC integration            ....       0.213 sec  ( 14.9% of F)
    Basis function eval.    ....       0.019 sec  (  9.0% of XC)
    Density eval.           ....       0.027 sec  ( 12.5% of XC)
    XC-Functional eval.     ....       0.012 sec  (  5.7% of XC)
    XC-Potential eval.      ....       0.063 sec  ( 29.7% of XC)
Diagonalization             ....       0.009 sec  (  0.5%)
Density matrix formation    ....       0.002 sec  (  0.1%)
Population analysis         ....       0.003 sec  (  0.2%)
Initial guess               ....       0.092 sec  (  5.0%)
Orbital Transformation      ....       0.000 sec  (  0.0%)
Orbital Orthonormalization  ....       0.000 sec  (  0.0%)
DIIS solution               ....       0.003 sec  (  0.2%)
SOSCF solution              ....       0.002 sec  (  0.1%)
Grid generation             ....       0.118 sec  (  6.4%)

-------------------------   --------------------
FINAL SINGLE POINT ENERGY       -40.492612578796
-------------------------   --------------------


                            ***************************************
                            *     ORCA property calculations      *
                            ***************************************

                                    ---------------------
                                    Active property flags
                                    ---------------------
   (+) Dipole Moment


------------------------------------------------------------------------------
                       ORCA ELECTRIC PROPERTIES CALCULATION
------------------------------------------------------------------------------

Dipole Moment Calculation                       ... on
Quadrupole Moment Calculation                   ... off
Polarizability Calculation                      ... off
GBWName                                         ... 170_c.gbw
Electron density file                           ... 170_c.scfp
The origin for moment calculation is the CENTER OF MASS  = ( 0.000000,  0.000000  0.000000)

-------------
DIPOLE MOMENT
-------------
                                X             Y             Z
Electronic contribution:      0.00000      -0.00000      -0.00000
Nuclear contribution   :      0.00000       0.00000       0.00000
                        -----------------------------------------
Total Dipole Moment    :      0.00000      -0.00000      -0.00000
                        -----------------------------------------
Magnitude (a.u.)       :      0.00000
Magnitude (Debye)      :      0.00000



--------------------
Rotational spectrum 
--------------------
 
Rotational constants in cm-1:     5.216064     5.216064     5.216064 
Rotational constants in MHz : 156373.665933 156373.665933 156373.665933 

 Dipole components along the rotational axes: 
x,y,z [a.u.] :     0.000000    -0.000000    -0.000000 
x,y,z [Debye]:     0.000000    -0.000000    -0.000000 

 

Timings for individual modules:

Sum of individual times         ...        2.920 sec (=   0.049 min)
GTO integral calculation        ...        0.657 sec (=   0.011 min)  22.5 %
SCF iterations                  ...        2.262 sec (=   0.038 min)  77.5 %
                             ****ORCA TERMINATED NORMALLY****
TOTAL RUN TIME: 0 days 0 hours 0 minutes 3 seconds 357 msec
