
                                 *****************
                                 * O   R   C   A *
                                 *****************

           --- An Ab Initio, DFT and Semiempirical electronic structure package ---

                  #######################################################
                  #                        -***-                        #
                  #          Department of theory and spectroscopy      #
                  #               Directorship: Frank Neese             #
                  #        Max Planck Institute fuer Kohlenforschung    #
                  #                Kaiser Wilhelm Platz 1               #
                  #                 D-45470 Muelheim/Ruhr               #
                  #                      Germany                        #
                  #                                                     #
                  #                  All rights reserved                #
                  #                        -***-                        #
                  #######################################################


                         Program Version 4.2.0 -  RELEASE  -


 With contributions from (in alphabetic order):
   Daniel Aravena         : Magnetic Suceptibility
   Michael Atanasov       : Ab Initio Ligand Field Theory (pilot matlab implementation)
   Alexander A. Auer      : GIAO ZORA, VPT2
   Ute Becker             : Parallelization
   Giovanni Bistoni       : ED, misc. LED, open-shell LED, HFLED
   Martin Brehm           : Molecular dynamics
   Dmytro Bykov           : SCF Hessian
   Vijay G. Chilkuri      : MRCI spin determinant printing, contributions to CSF-ICE
   Dipayan Datta          : RHF DLPNO-CCSD density
   Achintya Kumar Dutta   : EOM-CC, STEOM-CC
   Dmitry Ganyushin       : Spin-Orbit,Spin-Spin,Magnetic field MRCI
   Miquel Garcia          : C-PCM Hessian, Gaussian charge scheme
   Yang Guo               : DLPNO-NEVPT2, CIM, IAO-localization
   Andreas Hansen         : Spin unrestricted coupled pair/coupled cluster methods
   Benjamin Helmich-Paris : CASSCF linear response (MC-RPA)
   Lee Huntington         : MR-EOM, pCC
   Robert Izsak           : Overlap fitted RIJCOSX, COSX-SCS-MP3, EOM
   Christian Kollmar      : KDIIS, OOCD, Brueckner-CCSD(T), CCSD density
   Simone Kossmann        : Meta GGA functionals, TD-DFT gradient, OOMP2, MP2 Hessian
   Martin Krupicka        : AUTO-CI
   Lucas Lang             : DCDCAS
   Dagmar Lenk            : GEPOL surface, SMD
   Dimitrios Liakos       : Extrapolation schemes; Compound Job, initial MDCI parallelization
   Dimitrios Manganas     : Further ROCIS development; embedding schemes
   Dimitrios Pantazis     : SARC Basis sets
   Taras Petrenko         : DFT Hessian,TD-DFT gradient, ASA, ECA, R-Raman, ABS, FL, XAS/XES, NRVS
   Peter Pinski           : DLPNO-MP2, DLPNO-MP2 Gradient
   Christoph Reimann      : Effective Core Potentials
   Marius Retegan         : Local ZFS, SOC
   Christoph Riplinger    : Optimizer, TS searches, QM/MM, DLPNO-CCSD(T), (RO)-DLPNO pert. Triples
   Tobias Risthaus        : Range-separated hybrids, TD-DFT gradient, RPA, STAB
   Michael Roemelt        : Original ROCIS implementation
   Masaaki Saitow         : Open-shell DLPNO-CCSD energy and density
   Barbara Sandhoefer     : DKH picture change effects
   Avijit Sen             : IP-ROCIS
   Kantharuban Sivalingam : CASSCF convergence, NEVPT2, FIC-MRCI
   Bernardo de Souza      : ESD, SOC TD-DFT
   Georgi Stoychev        : AutoAux, RI-MP2 NMR
   Willem Van den Heuvel  : Paramagnetic NMR
   Boris Wezisla          : Elementary symmetry handling
   Frank Wennmohs         : Technical directorship


 We gratefully acknowledge several colleagues who have allowed us to
 interface, adapt or use parts of their codes:
   Stefan Grimme, W. Hujo, H. Kruse,             : VdW corrections, initial TS optimization,
                  C. Bannwarth                     DFT functionals, gCP, sTDA/sTD-DF
   Ed Valeev, F. Pavosevic, A. Kumar             : LibInt (2-el integral package), F12 methods
   Garnet Chan, S. Sharma, J. Yang, R. Olivares  : DMRG
   Ulf Ekstrom                                   : XCFun DFT Library
   Mihaly Kallay                                 : mrcc  (arbitrary order and MRCC methods)
   Andreas Klamt, Michael Diedenhofen            : otool_cosmo (COSMO solvation model)
   Jiri Pittner, Ondrej Demel                    : Mk-CCSD
   Frank Weinhold                                : gennbo (NPA and NBO analysis)
   Christopher J. Cramer and Donald G. Truhlar   : smd solvation model
   Lars Goerigk                                  : TD-DFT with DH, B97 family of functionals
   V. Asgeirsson, H. Jonsson                     : NEB implementation
   FAccTs GmbH                                   : IRC, NEB, NEB-TS, Multilevel, MM, QM/MM, CI optimization
   S Lehtola, MJT Oliveira, MAL Marques          : LibXC Library


 Your calculation uses the libint2 library for the computation of 2-el integrals
 For citations please refer to: http://libint.valeyev.net

 Your ORCA version has been built with support for libXC version: 4.2.3
 For citations please refer to: https://tddft.org/programs/libxc/

 This ORCA versions uses:
   CBLAS   interface :  Fast vector & matrix operations
   LAPACKE interface :  Fast linear algebra routines
   SCALAPACK package :  Parallel linear algebra routines


Your calculation utilizes the DFT-NL dispersion correction.
Cite in your paper:
Vydrov, O. A.; Van Voorhis, T. J. Chem. Phys. 2010, 133, 244103
Hujo, W.; Grimme, S. J. Chem. Theory Comput. 2011, 7, 3866 
   

----- Orbital basis set information -----
Your calculation utilizes the basis: def2-TZVPPD
   F. Weigend and R. Ahlrichs, Phys. Chem. Chem. Phys. 7, 3297 (2005).
   D. Rappoport and F. Furche, J. Chem. Phys. 133 134105 (2010).

----- AuxJK basis set information -----
Your calculation utilizes the auxiliary basis: def2/JK
   H-Ba, Hf-Rn: F. Weigend, J. Comput. Chem. 29, 167 (2008).

================================================================================
                                        WARNINGS
                       Please study these warnings very carefully!
================================================================================


WARNING: your system is open-shell and RHF/RKS was chosen
  ===> : WILL SWITCH to UHF/UKS


INFO   : the flag for use of LIBINT has been found!

================================================================================
                                       INPUT FILE
================================================================================
NAME = 172_o.in
|  1> #
|  2> # 172_o wB97M-V/Def2-TZVPPD
|  3> #
|  4> ! wb97m-v def2-tzvppd def2/jk grid4 nofinalgrid
|  5> 
|  6> *xyz 0 3
|  7> O          0.00000        0.00000        0.61122
|  8> O          0.00000        0.00000       -0.61122
|  9> *
| 10> 
| 11> %maxcore 5000
| 12> 
| 13> %pal
| 14> nprocs = 24
| 15> end
| 16> 
| 17> 
| 18>                          ****END OF INPUT****
================================================================================

                       ****************************
                       * Single Point Calculation *
                       ****************************

---------------------------------
CARTESIAN COORDINATES (ANGSTROEM)
---------------------------------
  O      0.000000    0.000000    0.611220
  O      0.000000    0.000000   -0.611220

----------------------------
CARTESIAN COORDINATES (A.U.)
----------------------------
  NO LB      ZA    FRAG     MASS         X           Y           Z
   0 O     8.0000    0    15.999    0.000000    0.000000    1.155038
   1 O     8.0000    0    15.999    0.000000    0.000000   -1.155038

--------------------------------
INTERNAL COORDINATES (ANGSTROEM)
--------------------------------
 O      0   0   0     0.000000000000     0.00000000     0.00000000
 O      1   0   0     1.222440000000     0.00000000     0.00000000

---------------------------
INTERNAL COORDINATES (A.U.)
---------------------------
 O      0   0   0     0.000000000000     0.00000000     0.00000000
 O      1   0   0     2.310076815151     0.00000000     0.00000000

---------------------
BASIS SET INFORMATION
---------------------
There are 1 groups of distinct atoms

 Group   1 Type O   : 12s7p3d1f contracted to 6s4p3d1f pattern {621111/4111/111/1}

Atom   0O    basis set group =>   1
Atom   1O    basis set group =>   1
----------------------------------
AUXILIARY/JK BASIS SET INFORMATION
----------------------------------
There are 1 groups of distinct atoms

 Group   1 Type O   : 14s10p6d2f1g contracted to 10s8p4d2f1g pattern {5111111111/31111111/3111/11/1}

Atom   0O    basis set group =>   1
Atom   1O    basis set group =>   1


           ************************************************************
           *        Program running with 24 parallel MPI-processes    *
           *              working on a common directory               *
           ************************************************************
------------------------------------------------------------------------------
                           ORCA GTO INTEGRAL CALCULATION
------------------------------------------------------------------------------

                         BASIS SET STATISTICS AND STARTUP INFO

 # of primitive gaussian shells          ...   46
 # of primitive gaussian functions       ...  110
 # of contracted shells                  ...   28
 # of contracted basis functions         ...   80
 Highest angular momentum                ...    3
 Maximum contraction depth               ...    6
 Integral package used                   ... LIBINT
 Integral threshhold            Thresh   ...  1.000e-10
 Primitive cut-off              TCut     ...  1.000e-11


------------------------------ INTEGRAL EVALUATION ----------------------------


 * One electron integrals 
 Pre-screening matrix                    ... done
 Shell pair data                         ... done (   0.000 sec)



           ************************************************************
           *        Program running with 24 parallel MPI-processes    *
           *              working on a common directory               *
           ************************************************************
-------------------------------------------------------------------------------
                                 ORCA SCF
-------------------------------------------------------------------------------

------------
SCF SETTINGS
------------
Hamiltonian:
 Density Functional     Method          .... DFT(GTOs)
 Exchange Functional    Exchange        .... WB97M-V
 Correlation Functional Correlation     .... WB97M-V
 Gradients option       PostSCFGGA      .... off
 Hybrid DFT is turned on
   Fraction HF Exchange ScalHFX         ....  0.150000
   Scaling of DF-GGA-X  ScalDFX         ....  0.000000
   Scaling of DF-GGA-C  ScalDFC         ....  1.000000
   Scaling of DF-LDA-C  ScalLDAC        ....  1.000000
   Perturbative correction              ....  0.000000
   Density functional embedding theory  .... OFF
 Long-range corrected/Screened/Range-Separated Hybrid DFT is turned on
   Amount of maximum screened exact exchange              ....  0.850000
   Range separation parameter mu (erf(mu*r12)/r12)        ....  0.300000
   NL short-range parameter             ....  6.000000
   NL long-range parameter              ....  0.010000


General Settings:
 Integral files         IntName         .... 172_o
 Hartree-Fock type      HFTyp           .... UHF
 Total Charge           Charge          ....    0
 Multiplicity           Mult            ....    3
 Number of Electrons    NEL             ....   16
 Basis Dimension        Dim             ....   80
 Nuclear Repulsion      ENuc            ....     27.7047064324 Eh

Convergence Acceleration:
 DIIS                   CNVDIIS         .... on
   Start iteration      DIISMaxIt       ....    12
   Startup error        DIISStart       ....  0.200000
   # of expansion vecs  DIISMaxEq       ....     5
   Bias factor          DIISBfac        ....   1.050
   Max. coefficient     DIISMaxC        ....  10.000
 Newton-Raphson         CNVNR           .... off
 SOSCF                  CNVSOSCF        .... off
 Level Shifting         CNVShift        .... on
   Level shift para.    LevelShift      ....    0.2500
   Turn off err/grad.   ShiftErr        ....    0.0010
 Zerner damping         CNVZerner       .... off
 Static damping         CNVDamp         .... on
   Fraction old density DampFac         ....    0.7000
   Max. Damping (<1)    DampMax         ....    0.9800
   Min. Damping (>=0)   DampMin         ....    0.0000
   Turn off err/grad.   DampErr         ....    0.1000
 Fernandez-Rico         CNVRico         .... off

SCF Procedure:
 Maximum # iterations   MaxIter         ....   125
 SCF integral mode      SCFMode         .... Direct
   Integral package                     .... LIBINT
 Reset frequency        DirectResetFreq ....    20
 Integral Threshold     Thresh          ....  1.000e-10 Eh
 Primitive CutOff       TCut            ....  1.000e-11 Eh

Convergence Tolerance:
 Convergence Check Mode ConvCheckMode   .... Total+1el-Energy
 Convergence forced     ConvForced      .... 0
 Energy Change          TolE            ....  1.000e-06 Eh
 1-El. energy change                    ....  1.000e-03 Eh
 DIIS Error             TolErr          ....  1.000e-06


Diagonalization of the overlap matrix:
Smallest eigenvalue                        ... 2.637e-04
Time for diagonalization                   ...    0.003 sec
Threshold for overlap eigenvalues          ... 1.000e-08
Number of eigenvalues below threshold      ... 0
Time for construction of square roots      ...    0.001 sec
Total time needed                          ...    0.004 sec

-------------------
DFT GRID GENERATION
-------------------

General Integration Accuracy     IntAcc      ...  4.670
Radial Grid Type                 RadialGrid  ... Gauss-Chebyshev
Angular Grid (max. acc.)         AngularGrid ... Lebedev-302
Angular grid pruning method      GridPruning ... 3 (G Style)
Weight generation scheme         WeightScheme... Becke
Basis function cutoff            BFCut       ...    1.0000e-10
Integration weight cutoff        WCut        ...    1.0000e-14
Grids for H and He will be reduced by one unit

# of grid points (after initial pruning)     ...  12424 (   0.0 sec)
# of grid points (after weights+screening)   ...  12396 (   0.0 sec)
nearest neighbour list constructed           ...    0.0 sec
Grid point re-assignment to atoms done       ...    0.0 sec
Grid point division into batches done        ...    0.1 sec
Reduced shell lists constructed in    0.1 sec

Total number of grid points                  ...    12396
Total number of batches                      ...      194
Average number of points per batch           ...       63
Average number of grid points per atom       ...     6198
Average number of shells per batch           ...     8.20 (29.29%)
Average number of basis functions per batch  ...    22.00 (27.50%)
Average number of large shells per batch     ...     4.90 (59.76%)
Average number of large basis fcns per batch ...    13.70 (62.27%)
Maximum spatial batch extension              ...  19.94, 19.94, 11.34 au
Average spatial batch extension              ...   0.68,  0.68,  0.45 au

Time for grid setup =    0.104 sec

------------------------------
INITIAL GUESS: MODEL POTENTIAL
------------------------------
Loading Hartree-Fock densities                     ... done
Calculating cut-offs                               ... done
Setting up the integral package                    ... done
Initializing the effective Hamiltonian             ... done
Starting the Coulomb interaction                   ... done (   0.0 sec)
Reading the grid                                   ... done
Mapping shells                                     ... done
Starting the XC term evaluation                    ... done (   0.0 sec)
  promolecular density results
     # of electrons  =     15.999997739
     EX              =    -16.208436018
     EC              =     -0.533215271
     EX+EC           =    -16.741651289
Transforming the Hamiltonian                       ... done (   0.0 sec)
Diagonalizing the Hamiltonian                      ... done (   0.0 sec)
Back transforming the eigenvectors                 ... done (   0.0 sec)
Now organizing SCF variables                       ... done
                      ------------------
                      INITIAL GUESS DONE (   0.2 sec)
                      ------------------
--------------
SCF ITERATIONS
--------------
ITER       Energy         Delta-E        Max-DP      RMS-DP      [F,P]     Damp
               ***  Starting incremental Fock matrix formation  ***
  0   -150.4060803469   0.000000000000 0.00574555  0.00028506  0.0710190 0.7000
  1   -150.4095587072  -0.003478360251 0.00473905  0.00023163  0.0503047 0.7000
                               ***Turning on DIIS***
  2   -150.4120225039  -0.002463796672 0.01096287  0.00056415  0.0354721 0.0000
  3   -150.4179739937  -0.005951489804 0.00260206  0.00011262  0.0069259 0.0000
  4   -150.4182831185  -0.000309124882 0.00115580  0.00005650  0.0014721 0.0000
  5   -150.4183717637  -0.000088645107 0.00079956  0.00004157  0.0006679 0.0000
  6   -150.4184206214  -0.000048857736 0.00021049  0.00000909  0.0001881 0.0000
  7   -150.4184272788  -0.000006657456 0.00004191  0.00000160  0.0000242 0.0000
  8   -150.4184287883  -0.000001509402 0.00000932  0.00000039  0.0000030 0.0000
                 **** Energy Check signals convergence ****

               *****************************************************
               *                     SUCCESS                       *
               *           SCF CONVERGED AFTER   9 CYCLES          *
               *****************************************************


Setting up the DFT-NL grid :

General Integration Accuracy     IntAcc      ...  4.340
Radial Grid Type                 RadialGrid  ... Gauss-Chebyshev
Angular Grid (max. acc.)         AngularGrid ... Lebedev-110
Angular grid pruning method      GridPruning ... 3 (G Style)
Weight generation scheme         WeightScheme... Becke
Basis function cutoff            BFCut       ...    1.0000e-10
Integration weight cutoff        WCut        ...    1.0000e-14
Grids for H and He will be reduced by one unit

# of grid points (after initial pruning)     ...   3432 (   0.0 sec)
# of grid points (after weights+screening)   ...   3408 (   0.0 sec)
nearest neighbour list constructed           ...    0.0 sec
Grid point re-assignment to atoms done       ...    0.0 sec
Grid point division into batches done        ...    0.0 sec
Reduced shell lists constructed in    0.0 sec

Total number of grid points                  ...     3408
Total number of batches                      ...       54
Average number of points per batch           ...       63
Average number of grid points per atom       ...     1704
Average number of shells per batch           ...    14.00 (50.00%)
Average number of basis functions per batch  ...    41.00 (51.25%)
Average number of large shells per batch     ...    12.00 (85.71%)
Average number of large basis fcns per batch ...    33.00 (80.49%)
Maximum spatial batch extension              ...  15.77, 25.65, 13.85 au
Average spatial batch extension              ...   0.81,  1.21,  0.76 au

Final grid set up in    0.0 sec

-------------------------------------------------------------------------------
                         DFT-NL dispersion correction                          
-------------------------------------------------------------------------------

SC Energy -150.418429074 
NL    Energy 0.067720879 
SC+NL Energy -150.350708194 
NL done in    0.0 sec
-------------------------------------------------------------------------------

----------------
TOTAL SCF ENERGY
----------------

Total Energy       :         -150.35070819 Eh           -4091.25077 eV

Components:
Nuclear Repulsion  :           27.70470643 Eh             753.88339 eV
Electronic Energy  :         -178.05541463 Eh           -4845.13415 eV
One Electron Energy:         -261.09056739 Eh           -7104.63553 eV
Two Electron Energy:           83.03515277 Eh            2259.50138 eV

Virial components:
Potential Energy   :         -300.28548740 Eh           -8171.18353 eV
Kinetic Energy     :          149.93477920 Eh            4079.93276 eV
Virial Ratio       :            2.00277407


DFT components:
N(Alpha)           :        9.000000388497 electrons
N(Beta)            :        7.000000654725 electrons
N(Total)           :       16.000001043222 electrons
E(X)               :      -11.859377305807 Eh       
E(C)               :       -0.567081783850 Eh       
NL Energy, E(C,NL) :        0.067720879434 Eh       
E(XC)              :      -12.358738210223 Eh       
DFET-embed. en.    :        0.000000000000 Eh       

---------------
SCF CONVERGENCE
---------------

  Last Energy change         ...   -2.8531e-07  Tolerance :   1.0000e-06
  Last MAX-Density change    ...    2.7817e-06  Tolerance :   1.0000e-05
  Last RMS-Density change    ...    1.0534e-07  Tolerance :   1.0000e-06
  Last DIIS Error            ...    4.9459e-07  Tolerance :   1.0000e-06

             **** THE GBW FILE WAS UPDATED (172_o.gbw) ****
             **** DENSITY FILE WAS UPDATED (172_o.scfp) ****
             **** ENERGY FILE WAS UPDATED (172_o.en.tmp) ****
----------------------
UHF SPIN CONTAMINATION
----------------------

Warning: in a DFT calculation there is little theoretical justification to 
         calculate <S**2> as in Hartree-Fock theory. We will do it anyways
         but you should keep in mind that the values have only limited relevance

Expectation value of <S**2>     :     2.008908
Ideal value S*(S+1) for S=1.0   :     2.000000
Deviation                       :     0.008908

             **** THE GBW FILE WAS UPDATED (172_o.gbw) ****
             **** DENSITY FILE WAS UPDATED (172_o.scfp) ****
----------------
ORBITAL ENERGIES
----------------
                 SPIN UP ORBITALS
  NO   OCC          E(Eh)            E(eV) 
   0   1.0000     -19.503748      -530.7240 
   1   1.0000     -19.503671      -530.7219 
   2   1.0000      -1.431627       -38.9565 
   3   1.0000      -0.976653       -26.5761 
   4   1.0000      -0.679759       -18.4972 
   5   1.0000      -0.679759       -18.4972 
   6   1.0000      -0.670356       -18.2413 
   7   1.0000      -0.427775       -11.6404 
   8   1.0000      -0.427775       -11.6404 
   9   0.0000       0.060381         1.6431 
  10   0.0000       0.087057         2.3689 
  11   0.0000       0.094346         2.5673 
  12   0.0000       0.094346         2.5673 
  13   0.0000       0.137540         3.7426 
  14   0.0000       0.137540         3.7427 
  15   0.0000       0.139096         3.7850 
  16   0.0000       0.238593         6.4924 
  17   0.0000       0.342017         9.3068 
  18   0.0000       0.372632        10.1398 
  19   0.0000       0.372632        10.1398 
  20   0.0000       0.461208        12.5501 
  21   0.0000       0.500997        13.6328 
  22   0.0000       0.515883        14.0379 
  23   0.0000       0.515883        14.0379 
  24   0.0000       0.524523        14.2730 
  25   0.0000       0.524523        14.2730 
  26   0.0000       0.541703        14.7405 
  27   0.0000       0.541705        14.7405 
  28   0.0000       0.602150        16.3853 
  29   0.0000       0.602150        16.3853 
  30   0.0000       0.683319        18.5940 
  31   0.0000       0.839924        22.8555 
  32   0.0000       0.950579        25.8666 
  33   0.0000       0.950579        25.8666 
  34   0.0000       0.959705        26.1149 
  35   0.0000       1.276863        34.7452 
  36   0.0000       1.545947        42.0674 
  37   0.0000       1.545947        42.0674 
  38   0.0000       1.558399        42.4062 
  39   0.0000       1.558400        42.4062 
  40   0.0000       1.871664        50.9306 
  41   0.0000       1.871664        50.9306 
  42   0.0000       2.007025        54.6139 
  43   0.0000       2.210467        60.1499 
  44   0.0000       2.210467        60.1499 
  45   0.0000       2.464715        67.0683 
  46   0.0000       2.602136        70.8077 
  47   0.0000       2.602136        70.8077 
  48   0.0000       2.879094        78.3441 
  49   0.0000       3.092270        84.1449 
  50   0.0000       3.092270        84.1449 
  51   0.0000       3.195184        86.9454 
  52   0.0000       3.287063        89.4455 
  53   0.0000       4.353892       118.4754 
  54   0.0000       4.672127       127.1351 
  55   0.0000       4.672133       127.1352 
  56   0.0000       4.777085       129.9911 
  57   0.0000       4.777085       129.9911 
  58   0.0000       4.994677       135.9121 
  59   0.0000       4.994677       135.9121 
  60   0.0000       5.065489       137.8390 
  61   0.0000       5.219010       142.0165 
  62   0.0000       5.219010       142.0165 
  63   0.0000       5.751421       156.5041 
  64   0.0000       5.751422       156.5041 
  65   0.0000       6.262944       170.4234 
  66   0.0000       6.262949       170.4235 
  67   0.0000       6.354827       172.9236 
  68   0.0000       6.354827       172.9236 
  69   0.0000       6.428125       174.9182 
  70   0.0000       6.428131       174.9183 
  71   0.0000       6.563829       178.6109 
  72   0.0000       6.563829       178.6109 
  73   0.0000       6.564173       178.6202 
  74   0.0000       7.262974       197.6356 
  75   0.0000       7.262974       197.6356 
  76   0.0000       7.505393       204.2321 
  77   0.0000       8.726316       237.4551 
  78   0.0000      43.734844      1190.0856 
  79   0.0000      44.397793      1208.1254 

                 SPIN DOWN ORBITALS
  NO   OCC          E(Eh)            E(eV) 
   0   1.0000     -19.473618      -529.9041 
   1   1.0000     -19.473334      -529.8964 
   2   1.0000      -1.374423       -37.4000 
   3   1.0000      -0.889433       -24.2027 
   4   1.0000      -0.625335       -17.0162 
   5   1.0000      -0.572837       -15.5877 
   6   1.0000      -0.572837       -15.5877 
   7   0.0000      -0.030990        -0.8433 
   8   0.0000      -0.030990        -0.8433 
   9   0.0000       0.049666         1.3515 
  10   0.0000       0.080014         2.1773 
  11   0.0000       0.092144         2.5074 
  12   0.0000       0.092144         2.5074 
  13   0.0000       0.127135         3.4595 
  14   0.0000       0.127135         3.4595 
  15   0.0000       0.142374         3.8742 
  16   0.0000       0.246680         6.7125 
  17   0.0000       0.365588         9.9482 
  18   0.0000       0.376677        10.2499 
  19   0.0000       0.376678        10.2499 
  20   0.0000       0.464874        12.6499 
  21   0.0000       0.506170        13.7736 
  22   0.0000       0.516677        14.0595 
  23   0.0000       0.516677        14.0595 
  24   0.0000       0.522320        14.2130 
  25   0.0000       0.522320        14.2130 
  26   0.0000       0.531257        14.4563 
  27   0.0000       0.531260        14.4563 
  28   0.0000       0.630361        17.1530 
  29   0.0000       0.630361        17.1530 
  30   0.0000       0.693406        18.8685 
  31   0.0000       0.847866        23.0716 
  32   0.0000       0.955093        25.9894 
  33   0.0000       0.961417        26.1615 
  34   0.0000       0.961417        26.1615 
  35   0.0000       1.285960        34.9928 
  36   0.0000       1.580107        42.9969 
  37   0.0000       1.580107        42.9969 
  38   0.0000       1.596082        43.4316 
  39   0.0000       1.596086        43.4317 
  40   0.0000       1.927517        52.4504 
  41   0.0000       1.927520        52.4505 
  42   0.0000       2.035522        55.3894 
  43   0.0000       2.251282        61.2605 
  44   0.0000       2.251282        61.2605 
  45   0.0000       2.485029        67.6211 
  46   0.0000       2.686754        73.1103 
  47   0.0000       2.686754        73.1103 
  48   0.0000       2.930309        79.7378 
  49   0.0000       3.166641        86.1687 
  50   0.0000       3.166641        86.1687 
  51   0.0000       3.233186        87.9795 
  52   0.0000       3.337564        90.8197 
  53   0.0000       4.385967       119.3482 
  54   0.0000       4.725049       128.5751 
  55   0.0000       4.725052       128.5752 
  56   0.0000       4.817709       131.0965 
  57   0.0000       4.817709       131.0965 
  58   0.0000       5.077209       138.1579 
  59   0.0000       5.077209       138.1579 
  60   0.0000       5.111625       139.0944 
  61   0.0000       5.305391       144.3670 
  62   0.0000       5.305391       144.3670 
  63   0.0000       5.814571       158.2225 
  64   0.0000       5.814574       158.2226 
  65   0.0000       6.388480       173.8394 
  66   0.0000       6.388492       173.8397 
  67   0.0000       6.429793       174.9636 
  68   0.0000       6.429793       174.9636 
  69   0.0000       6.551075       178.2638 
  70   0.0000       6.551084       178.2640 
  71   0.0000       6.624573       180.2638 
  72   0.0000       6.637562       180.6173 
  73   0.0000       6.637562       180.6173 
  74   0.0000       7.311270       198.9498 
  75   0.0000       7.311270       198.9498 
  76   0.0000       7.554117       205.5580 
  77   0.0000       8.771257       238.6780 
  78   0.0000      43.760980      1190.7968 
  79   0.0000      44.423012      1208.8116 

                    ********************************
                    * MULLIKEN POPULATION ANALYSIS *
                    ********************************

--------------------------------------------
MULLIKEN ATOMIC CHARGES AND SPIN POPULATIONS
--------------------------------------------
   0 O :   -0.000001    1.000000
   1 O :    0.000001    1.000000
Sum of atomic charges         :   -0.0000000
Sum of atomic spin populations:    2.0000000

-----------------------------------------------------
MULLIKEN REDUCED ORBITAL CHARGES AND SPIN POPULATIONS
-----------------------------------------------------
CHARGE
  0 O s       :     3.954932  s :     3.954932
      pz      :     1.033127  p :     3.999628
      px      :     1.483251
      py      :     1.483251
      dz2     :     0.010029  d :     0.040893
      dxz     :     0.015432
      dyz     :     0.015432
      dx2y2   :    -0.000000
      dxy     :     0.000000
      f0      :     0.001913  f :     0.004547
      f+1     :     0.001317
      f-1     :     0.001317
      f+2     :     0.000000
      f-2     :     0.000000
      f+3     :     0.000000
      f-3     :     0.000000
  1 O s       :     3.954931  s :     3.954931
      pz      :     1.033127  p :     3.999628
      px      :     1.483251
      py      :     1.483251
      dz2     :     0.010029  d :     0.040893
      dxz     :     0.015432
      dyz     :     0.015432
      dx2y2   :     0.000000
      dxy     :     0.000000
      f0      :     0.001913  f :     0.004547
      f+1     :     0.001317
      f-1     :     0.001317
      f+2     :     0.000000
      f-2     :     0.000000
      f+3     :     0.000000
      f-3     :     0.000000

SPIN
  0 O s       :     0.008787  s :     0.008787
      pz      :    -0.009040  p :     1.003131
      px      :     0.506085
      py      :     0.506085
      dz2     :     0.000538  d :    -0.011678
      dxz     :    -0.006108
      dyz     :    -0.006108
      dx2y2   :    -0.000000
      dxy     :     0.000000
      f0      :    -0.000285  f :    -0.000240
      f+1     :     0.000022
      f-1     :     0.000022
      f+2     :     0.000000
      f-2     :    -0.000000
      f+3     :     0.000000
      f-3     :     0.000000
  1 O s       :     0.008787  s :     0.008787
      pz      :    -0.009040  p :     1.003131
      px      :     0.506085
      py      :     0.506085
      dz2     :     0.000538  d :    -0.011678
      dxz     :    -0.006108
      dyz     :    -0.006108
      dx2y2   :     0.000000
      dxy     :    -0.000000
      f0      :    -0.000285  f :    -0.000240
      f+1     :     0.000022
      f-1     :     0.000022
      f+2     :     0.000000
      f-2     :     0.000000
      f+3     :     0.000000
      f-3     :     0.000000


                     *******************************
                     * LOEWDIN POPULATION ANALYSIS *
                     *******************************

-------------------------------------------
LOEWDIN ATOMIC CHARGES AND SPIN POPULATIONS
-------------------------------------------
   0 O :   -0.000000    1.000000
   1 O :    0.000000    1.000000

----------------------------------------------------
LOEWDIN REDUCED ORBITAL CHARGES AND SPIN POPULATIONS
----------------------------------------------------
CHARGE
  0 O s       :     3.559315  s :     3.559315
      pz      :     1.277993  p :     4.078820
      px      :     1.400414
      py      :     1.400414
      dz2     :     0.155409  d :     0.344265
      dxz     :     0.094428
      dyz     :     0.094428
      dx2y2   :     0.000000
      dxy     :     0.000000
      f0      :     0.007283  f :     0.017600
      f+1     :     0.005158
      f-1     :     0.005158
      f+2     :     0.000000
      f-2     :     0.000000
      f+3     :     0.000000
      f-3     :     0.000000
  1 O s       :     3.559315  s :     3.559315
      pz      :     1.277993  p :     4.078820
      px      :     1.400414
      py      :     1.400414
      dz2     :     0.155409  d :     0.344265
      dxz     :     0.094428
      dyz     :     0.094428
      dx2y2   :     0.000000
      dxy     :     0.000000
      f0      :     0.007283  f :     0.017600
      f+1     :     0.005158
      f-1     :     0.005158
      f+2     :     0.000000
      f-2     :     0.000000
      f+3     :     0.000000
      f-3     :     0.000000

SPIN
  0 O s       :     0.007119  s :     0.007119
      pz      :    -0.008342  p :     0.890252
      px      :     0.449297
      py      :     0.449297
      dz2     :     0.001385  d :     0.097806
      dxz     :     0.048210
      dyz     :     0.048210
      dx2y2   :     0.000000
      dxy     :    -0.000000
      f0      :    -0.000162  f :     0.004823
      f+1     :     0.002492
      f-1     :     0.002492
      f+2     :     0.000000
      f-2     :    -0.000000
      f+3     :     0.000000
      f-3     :     0.000000
  1 O s       :     0.007119  s :     0.007119
      pz      :    -0.008342  p :     0.890252
      px      :     0.449297
      py      :     0.449297
      dz2     :     0.001385  d :     0.097806
      dxz     :     0.048210
      dyz     :     0.048210
      dx2y2   :     0.000000
      dxy     :    -0.000000
      f0      :    -0.000162  f :     0.004823
      f+1     :     0.002492
      f-1     :     0.002492
      f+2     :     0.000000
      f-2     :     0.000000
      f+3     :     0.000000
      f-3     :     0.000000


                      *****************************
                      * MAYER POPULATION ANALYSIS *
                      *****************************

  NA   - Mulliken gross atomic population
  ZA   - Total nuclear charge
  QA   - Mulliken gross atomic charge
  VA   - Mayer's total valence
  BVA  - Mayer's bonded valence
  FA   - Mayer's free valence

  ATOM       NA         ZA         QA         VA         BVA        FA
  0 O      8.0000     8.0000    -0.0000     2.1666     1.6204     0.5463
  1 O      8.0000     8.0000     0.0000     2.1666     1.6204     0.5463

  Mayer bond orders larger than 0.100000
B(  0-O ,  1-O ) :   1.6204 

-------
TIMINGS
-------

Total SCF time: 0 days 0 hours 0 min 1 sec 

Total time                  ....       1.733 sec
Sum of individual times     ....       1.544 sec  ( 89.1%)

Fock matrix formation       ....       1.315 sec  ( 75.9%)
  XC integration            ....       0.157 sec  ( 11.9% of F)
    Basis function eval.    ....       0.013 sec  (  8.1% of XC)
    Density eval.           ....       0.027 sec  ( 17.1% of XC)
    XC-Functional eval.     ....       0.011 sec  (  7.0% of XC)
    XC-Potential eval.      ....       0.051 sec  ( 32.7% of XC)
Diagonalization             ....       0.017 sec  (  1.0%)
Density matrix formation    ....       0.004 sec  (  0.2%)
Population analysis         ....       0.004 sec  (  0.2%)
Initial guess               ....       0.084 sec  (  4.8%)
Orbital Transformation      ....       0.000 sec  (  0.0%)
Orbital Orthonormalization  ....       0.000 sec  (  0.0%)
DIIS solution               ....       0.007 sec  (  0.4%)
Grid generation             ....       0.114 sec  (  6.6%)

-------------------------   --------------------
FINAL SINGLE POINT ENERGY      -150.350708194122
-------------------------   --------------------


                            ***************************************
                            *     ORCA property calculations      *
                            ***************************************

                                    ---------------------
                                    Active property flags
                                    ---------------------
   (+) Dipole Moment


------------------------------------------------------------------------------
                       ORCA ELECTRIC PROPERTIES CALCULATION
------------------------------------------------------------------------------

Dipole Moment Calculation                       ... on
Quadrupole Moment Calculation                   ... off
Polarizability Calculation                      ... off
GBWName                                         ... 172_o.gbw
Electron density file                           ... 172_o.scfp
The origin for moment calculation is the CENTER OF MASS  = ( 0.000000,  0.000000  0.000000)

-------------
DIPOLE MOMENT
-------------
                                X             Y             Z
Electronic contribution:     -0.00000       0.00000       0.00000
Nuclear contribution   :      0.00000       0.00000       0.00000
                        -----------------------------------------
Total Dipole Moment    :     -0.00000       0.00000       0.00000
                        -----------------------------------------
Magnitude (a.u.)       :      0.00000
Magnitude (Debye)      :      0.00000



--------------------
Rotational spectrum 
--------------------
 
Rotational constants in cm-1:     0.000000     1.410194     1.410194 
Rotational constants in MHz :     0.000000 42276.561443 42276.561443 

 Dipole components along the rotational axes: 
x,y,z [a.u.] :     0.000000     0.000000    -0.000000 
x,y,z [Debye]:     0.000000     0.000000    -0.000000 

 

Timings for individual modules:

Sum of individual times         ...        2.831 sec (=   0.047 min)
GTO integral calculation        ...        0.682 sec (=   0.011 min)  24.1 %
SCF iterations                  ...        2.149 sec (=   0.036 min)  75.9 %
                             ****ORCA TERMINATED NORMALLY****
TOTAL RUN TIME: 0 days 0 hours 0 minutes 3 seconds 278 msec
