
                                 *****************
                                 * O   R   C   A *
                                 *****************

           --- An Ab Initio, DFT and Semiempirical electronic structure package ---

                  #######################################################
                  #                        -***-                        #
                  #          Department of theory and spectroscopy      #
                  #               Directorship: Frank Neese             #
                  #        Max Planck Institute fuer Kohlenforschung    #
                  #                Kaiser Wilhelm Platz 1               #
                  #                 D-45470 Muelheim/Ruhr               #
                  #                      Germany                        #
                  #                                                     #
                  #                  All rights reserved                #
                  #                        -***-                        #
                  #######################################################


                         Program Version 4.2.0 -  RELEASE  -


 With contributions from (in alphabetic order):
   Daniel Aravena         : Magnetic Suceptibility
   Michael Atanasov       : Ab Initio Ligand Field Theory (pilot matlab implementation)
   Alexander A. Auer      : GIAO ZORA, VPT2
   Ute Becker             : Parallelization
   Giovanni Bistoni       : ED, misc. LED, open-shell LED, HFLED
   Martin Brehm           : Molecular dynamics
   Dmytro Bykov           : SCF Hessian
   Vijay G. Chilkuri      : MRCI spin determinant printing, contributions to CSF-ICE
   Dipayan Datta          : RHF DLPNO-CCSD density
   Achintya Kumar Dutta   : EOM-CC, STEOM-CC
   Dmitry Ganyushin       : Spin-Orbit,Spin-Spin,Magnetic field MRCI
   Miquel Garcia          : C-PCM Hessian, Gaussian charge scheme
   Yang Guo               : DLPNO-NEVPT2, CIM, IAO-localization
   Andreas Hansen         : Spin unrestricted coupled pair/coupled cluster methods
   Benjamin Helmich-Paris : CASSCF linear response (MC-RPA)
   Lee Huntington         : MR-EOM, pCC
   Robert Izsak           : Overlap fitted RIJCOSX, COSX-SCS-MP3, EOM
   Christian Kollmar      : KDIIS, OOCD, Brueckner-CCSD(T), CCSD density
   Simone Kossmann        : Meta GGA functionals, TD-DFT gradient, OOMP2, MP2 Hessian
   Martin Krupicka        : AUTO-CI
   Lucas Lang             : DCDCAS
   Dagmar Lenk            : GEPOL surface, SMD
   Dimitrios Liakos       : Extrapolation schemes; Compound Job, initial MDCI parallelization
   Dimitrios Manganas     : Further ROCIS development; embedding schemes
   Dimitrios Pantazis     : SARC Basis sets
   Taras Petrenko         : DFT Hessian,TD-DFT gradient, ASA, ECA, R-Raman, ABS, FL, XAS/XES, NRVS
   Peter Pinski           : DLPNO-MP2, DLPNO-MP2 Gradient
   Christoph Reimann      : Effective Core Potentials
   Marius Retegan         : Local ZFS, SOC
   Christoph Riplinger    : Optimizer, TS searches, QM/MM, DLPNO-CCSD(T), (RO)-DLPNO pert. Triples
   Tobias Risthaus        : Range-separated hybrids, TD-DFT gradient, RPA, STAB
   Michael Roemelt        : Original ROCIS implementation
   Masaaki Saitow         : Open-shell DLPNO-CCSD energy and density
   Barbara Sandhoefer     : DKH picture change effects
   Avijit Sen             : IP-ROCIS
   Kantharuban Sivalingam : CASSCF convergence, NEVPT2, FIC-MRCI
   Bernardo de Souza      : ESD, SOC TD-DFT
   Georgi Stoychev        : AutoAux, RI-MP2 NMR
   Willem Van den Heuvel  : Paramagnetic NMR
   Boris Wezisla          : Elementary symmetry handling
   Frank Wennmohs         : Technical directorship


 We gratefully acknowledge several colleagues who have allowed us to
 interface, adapt or use parts of their codes:
   Stefan Grimme, W. Hujo, H. Kruse,             : VdW corrections, initial TS optimization,
                  C. Bannwarth                     DFT functionals, gCP, sTDA/sTD-DF
   Ed Valeev, F. Pavosevic, A. Kumar             : LibInt (2-el integral package), F12 methods
   Garnet Chan, S. Sharma, J. Yang, R. Olivares  : DMRG
   Ulf Ekstrom                                   : XCFun DFT Library
   Mihaly Kallay                                 : mrcc  (arbitrary order and MRCC methods)
   Andreas Klamt, Michael Diedenhofen            : otool_cosmo (COSMO solvation model)
   Jiri Pittner, Ondrej Demel                    : Mk-CCSD
   Frank Weinhold                                : gennbo (NPA and NBO analysis)
   Christopher J. Cramer and Donald G. Truhlar   : smd solvation model
   Lars Goerigk                                  : TD-DFT with DH, B97 family of functionals
   V. Asgeirsson, H. Jonsson                     : NEB implementation
   FAccTs GmbH                                   : IRC, NEB, NEB-TS, Multilevel, MM, QM/MM, CI optimization
   S Lehtola, MJT Oliveira, MAL Marques          : LibXC Library


 Your calculation uses the libint2 library for the computation of 2-el integrals
 For citations please refer to: http://libint.valeyev.net

 Your ORCA version has been built with support for libXC version: 4.2.3
 For citations please refer to: https://tddft.org/programs/libxc/

 This ORCA versions uses:
   CBLAS   interface :  Fast vector & matrix operations
   LAPACKE interface :  Fast linear algebra routines
   SCALAPACK package :  Parallel linear algebra routines


Your calculation utilizes the DFT-NL dispersion correction.
Cite in your paper:
Vydrov, O. A.; Van Voorhis, T. J. Chem. Phys. 2010, 133, 244103
Hujo, W.; Grimme, S. J. Chem. Theory Comput. 2011, 7, 3866 
   

----- Orbital basis set information -----
Your calculation utilizes the basis: def2-TZVPPD
   F. Weigend and R. Ahlrichs, Phys. Chem. Chem. Phys. 7, 3297 (2005).
   D. Rappoport and F. Furche, J. Chem. Phys. 133 134105 (2010).

----- AuxJK basis set information -----
Your calculation utilizes the auxiliary basis: def2/JK
   H-Ba, Hf-Rn: F. Weigend, J. Comput. Chem. 29, 167 (2008).

================================================================================
                                        WARNINGS
                       Please study these warnings very carefully!
================================================================================


INFO   : the flag for use of LIBINT has been found!

================================================================================
                                       INPUT FILE
================================================================================
NAME = 176_al.in
|  1> #
|  2> # 176_al wB97M-V/Def2-TZVPPD
|  3> #
|  4> ! wb97m-v def2-tzvppd def2/jk grid4 nofinalgrid
|  5> 
|  6> *xyz 0 1
|  7> Al         0.00000        0.00000        0.00000
|  8> H          0.80046       -1.38644        0.00000
|  9> H          0.80046        1.38644        0.00000
| 10> H         -1.60093        0.00000        0.00000
| 11> *
| 12> 
| 13> %maxcore 5000
| 14> 
| 15> %pal
| 16> nprocs = 24
| 17> end
| 18> 
| 19> 
| 20>                          ****END OF INPUT****
================================================================================

                       ****************************
                       * Single Point Calculation *
                       ****************************

---------------------------------
CARTESIAN COORDINATES (ANGSTROEM)
---------------------------------
  Al     0.000000    0.000000    0.000000
  H      0.800460   -1.386440    0.000000
  H      0.800460    1.386440    0.000000
  H     -1.600930    0.000000    0.000000

----------------------------
CARTESIAN COORDINATES (A.U.)
----------------------------
  NO LB      ZA    FRAG     MASS         X           Y           Z
   0 Al   13.0000    0    26.982    0.000000    0.000000    0.000000
   1 H     1.0000    0     1.008    1.512650   -2.619992    0.000000
   2 H     1.0000    0     1.008    1.512650    2.619992    0.000000
   3 H     1.0000    0     1.008   -3.025319    0.000000    0.000000

--------------------------------
INTERNAL COORDINATES (ANGSTROEM)
--------------------------------
 Al     0   0   0     0.000000000000     0.00000000     0.00000000
 H      1   0   0     1.600922260823     0.00000000     0.00000000
 H      1   2   0     1.600922260823   120.00009343     0.00000000
 H      1   2   3     1.600930000000   119.99995328   180.00000000

---------------------------
INTERNAL COORDINATES (A.U.)
---------------------------
 Al     0   0   0     0.000000000000     0.00000000     0.00000000
 H      1   0   0     3.025304634654     0.00000000     0.00000000
 H      1   2   0     3.025304634654   120.00009343     0.00000000
 H      1   2   3     3.025319259579   119.99995328   180.00000000

---------------------
BASIS SET INFORMATION
---------------------
There are 2 groups of distinct atoms

 Group   1 Type Al  : 15s9p4d1f contracted to 6s5p4d1f pattern {732111/51111/1111/1}
 Group   2 Type H   : 5s3p1d contracted to 3s3p1d pattern {311/111/1}

Atom   0Al   basis set group =>   1
Atom   1H    basis set group =>   2
Atom   2H    basis set group =>   2
Atom   3H    basis set group =>   2
----------------------------------
AUXILIARY/JK BASIS SET INFORMATION
----------------------------------
There are 2 groups of distinct atoms

 Group   1 Type Al  : 16s12p10d4f1g contracted to 13s11p9d4f1g pattern {4111111111111/21111111111/211111111/1111/1}
 Group   2 Type H   : 4s2p2d contracted to 2s2p2d pattern {31/11/11}

Atom   0Al   basis set group =>   1
Atom   1H    basis set group =>   2
Atom   2H    basis set group =>   2
Atom   3H    basis set group =>   2


           ************************************************************
           *        Program running with 24 parallel MPI-processes    *
           *              working on a common directory               *
           ************************************************************
------------------------------------------------------------------------------
                           ORCA GTO INTEGRAL CALCULATION
------------------------------------------------------------------------------

                         BASIS SET STATISTICS AND STARTUP INFO

 # of primitive gaussian shells          ...   56
 # of primitive gaussian functions       ...  126
 # of contracted shells                  ...   37
 # of contracted basis functions         ...   99
 Highest angular momentum                ...    3
 Maximum contraction depth               ...    7
 Integral package used                   ... LIBINT
 Integral threshhold            Thresh   ...  1.000e-10
 Primitive cut-off              TCut     ...  1.000e-11


------------------------------ INTEGRAL EVALUATION ----------------------------


 * One electron integrals 
 Pre-screening matrix                    ... done
 Shell pair data                         ... done (   0.000 sec)



           ************************************************************
           *        Program running with 24 parallel MPI-processes    *
           *              working on a common directory               *
           ************************************************************
-------------------------------------------------------------------------------
                                 ORCA SCF
-------------------------------------------------------------------------------

------------
SCF SETTINGS
------------
Hamiltonian:
 Density Functional     Method          .... DFT(GTOs)
 Exchange Functional    Exchange        .... WB97M-V
 Correlation Functional Correlation     .... WB97M-V
 Gradients option       PostSCFGGA      .... off
 Hybrid DFT is turned on
   Fraction HF Exchange ScalHFX         ....  0.150000
   Scaling of DF-GGA-X  ScalDFX         ....  0.000000
   Scaling of DF-GGA-C  ScalDFC         ....  1.000000
   Scaling of DF-LDA-C  ScalLDAC        ....  1.000000
   Perturbative correction              ....  0.000000
   Density functional embedding theory  .... OFF
 Long-range corrected/Screened/Range-Separated Hybrid DFT is turned on
   Amount of maximum screened exact exchange              ....  0.850000
   Range separation parameter mu (erf(mu*r12)/r12)        ....  0.300000
   NL short-range parameter             ....  6.000000
   NL long-range parameter              ....  0.010000


General Settings:
 Integral files         IntName         .... 176_al
 Hartree-Fock type      HFTyp           .... RHF
 Total Charge           Charge          ....    0
 Multiplicity           Mult            ....    1
 Number of Electrons    NEL             ....   16
 Basis Dimension        Dim             ....   99
 Nuclear Repulsion      ENuc            ....     13.4637631879 Eh

Convergence Acceleration:
 DIIS                   CNVDIIS         .... on
   Start iteration      DIISMaxIt       ....    12
   Startup error        DIISStart       ....  0.200000
   # of expansion vecs  DIISMaxEq       ....     5
   Bias factor          DIISBfac        ....   1.050
   Max. coefficient     DIISMaxC        ....  10.000
 Newton-Raphson         CNVNR           .... off
 SOSCF                  CNVSOSCF        .... on
   Start iteration      SOSCFMaxIt      ....   150
   Startup grad/error   SOSCFStart      ....  0.003300
 Level Shifting         CNVShift        .... on
   Level shift para.    LevelShift      ....    0.2500
   Turn off err/grad.   ShiftErr        ....    0.0010
 Zerner damping         CNVZerner       .... off
 Static damping         CNVDamp         .... on
   Fraction old density DampFac         ....    0.7000
   Max. Damping (<1)    DampMax         ....    0.9800
   Min. Damping (>=0)   DampMin         ....    0.0000
   Turn off err/grad.   DampErr         ....    0.1000
 Fernandez-Rico         CNVRico         .... off

SCF Procedure:
 Maximum # iterations   MaxIter         ....   125
 SCF integral mode      SCFMode         .... Direct
   Integral package                     .... LIBINT
 Reset frequency        DirectResetFreq ....    20
 Integral Threshold     Thresh          ....  1.000e-10 Eh
 Primitive CutOff       TCut            ....  1.000e-11 Eh

Convergence Tolerance:
 Convergence Check Mode ConvCheckMode   .... Total+1el-Energy
 Convergence forced     ConvForced      .... 0
 Energy Change          TolE            ....  1.000e-06 Eh
 1-El. energy change                    ....  1.000e-03 Eh
 Orbital Gradient       TolG            ....  5.000e-05
 Orbital Rotation angle TolX            ....  5.000e-05
 DIIS Error             TolErr          ....  1.000e-06


Diagonalization of the overlap matrix:
Smallest eigenvalue                        ... 9.322e-04
Time for diagonalization                   ...    0.003 sec
Threshold for overlap eigenvalues          ... 1.000e-08
Number of eigenvalues below threshold      ... 0
Time for construction of square roots      ...    0.002 sec
Total time needed                          ...    0.004 sec

-------------------
DFT GRID GENERATION
-------------------

General Integration Accuracy     IntAcc      ...  4.670
Radial Grid Type                 RadialGrid  ... Gauss-Chebyshev
Angular Grid (max. acc.)         AngularGrid ... Lebedev-302
Angular grid pruning method      GridPruning ... 3 (G Style)
Weight generation scheme         WeightScheme... Becke
Basis function cutoff            BFCut       ...    1.0000e-10
Integration weight cutoff        WCut        ...    1.0000e-14
Grids for H and He will be reduced by one unit

# of grid points (after initial pruning)     ...  17028 (   0.0 sec)
# of grid points (after weights+screening)   ...  16823 (   0.0 sec)
nearest neighbour list constructed           ...    0.0 sec
Grid point re-assignment to atoms done       ...    0.0 sec
Grid point division into batches done        ...    0.1 sec
Reduced shell lists constructed in    0.1 sec

Total number of grid points                  ...    16823
Total number of batches                      ...      265
Average number of points per batch           ...       63
Average number of grid points per atom       ...     4206
Average number of shells per batch           ...    30.62 (82.74%)
Average number of basis functions per batch  ...    82.92 (83.76%)
Average number of large shells per batch     ...    26.46 (86.43%)
Average number of large basis fcns per batch ...    72.00 (86.83%)
Maximum spatial batch extension              ...   4.35,  3.64, 23.40 au
Average spatial batch extension              ...   0.12,  0.13,  0.27 au

Time for grid setup =    0.099 sec

------------------------------
INITIAL GUESS: MODEL POTENTIAL
------------------------------
Loading Hartree-Fock densities                     ... done
Calculating cut-offs                               ... done
Setting up the integral package                    ... done
Initializing the effective Hamiltonian             ... done
Starting the Coulomb interaction                   ... done (   0.0 sec)
Reading the grid                                   ... done
Mapping shells                                     ... done
Starting the XC term evaluation                    ... done (   0.0 sec)
  promolecular density results
     # of electrons  =     15.998523046
     EX              =    -18.850275451
     EC              =     -0.530741105
     EX+EC           =    -19.381016556
Transforming the Hamiltonian                       ... done (   0.0 sec)
Diagonalizing the Hamiltonian                      ... done (   0.0 sec)
Back transforming the eigenvectors                 ... done (   0.0 sec)
Now organizing SCF variables                       ... done
                      ------------------
                      INITIAL GUESS DONE (   0.2 sec)
                      ------------------
--------------
SCF ITERATIONS
--------------
ITER       Energy         Delta-E        Max-DP      RMS-DP      [F,P]     Damp
               ***  Starting incremental Fock matrix formation  ***
  0   -244.2193577190   0.000000000000 0.02203529  0.00064755  0.0806156 0.7000
  1   -244.2246780971  -0.005320378136 0.01967805  0.00056367  0.0600036 0.7000
                               ***Turning on DIIS***
  2   -244.2286726697  -0.003994572563 0.04925965  0.00141321  0.0419845 0.0000
  3   -244.2382062658  -0.009533596064 0.00947682  0.00020841  0.0045407 0.0000
                      *** Initiating the SOSCF procedure ***
                           *** Shutting down DIIS ***
                      *** Re-Reading the Fockian *** 
                      *** Removing any level shift *** 
ITER      Energy       Delta-E        Grad      Rot      Max-DP    RMS-DP
  4   -244.23832141  -0.0001151431  0.000978  0.000978  0.001868  0.000079
               *** Restarting incremental Fock matrix formation ***
  5   -244.23833590  -0.0000144957  0.000418  0.000806  0.001784  0.000067
  6   -244.23833866  -0.0000027589  0.000150  0.000205  0.000635  0.000023
                 **** Energy Check signals convergence ****
              ***Rediagonalizing the Fockian in SOSCF/NRSCF***

               *****************************************************
               *                     SUCCESS                       *
               *           SCF CONVERGED AFTER   7 CYCLES          *
               *****************************************************


Setting up the DFT-NL grid :

General Integration Accuracy     IntAcc      ...  4.340
Radial Grid Type                 RadialGrid  ... Gauss-Chebyshev
Angular Grid (max. acc.)         AngularGrid ... Lebedev-110
Angular grid pruning method      GridPruning ... 3 (G Style)
Weight generation scheme         WeightScheme... Becke
Basis function cutoff            BFCut       ...    1.0000e-10
Integration weight cutoff        WCut        ...    1.0000e-14
Grids for H and He will be reduced by one unit

# of grid points (after initial pruning)     ...   4248 (   0.0 sec)
# of grid points (after weights+screening)   ...   4186 (   0.0 sec)
nearest neighbour list constructed           ...    0.0 sec
Grid point re-assignment to atoms done       ...    0.0 sec
Grid point division into batches done        ...    0.0 sec
Reduced shell lists constructed in    0.0 sec

Total number of grid points                  ...     4186
Total number of batches                      ...       67
Average number of points per batch           ...       62
Average number of grid points per atom       ...     1046
Average number of shells per batch           ...    26.75 (72.30%)
Average number of basis functions per batch  ...    72.25 (72.98%)
Average number of large shells per batch     ...    23.75 (88.79%)
Average number of large basis fcns per batch ...    66.75 (92.39%)
Maximum spatial batch extension              ...   4.13,  3.07, 24.93 au
Average spatial batch extension              ...   0.16,  0.12,  0.79 au

Final grid set up in    0.0 sec

-------------------------------------------------------------------------------
                         DFT-NL dispersion correction                          
-------------------------------------------------------------------------------

SC Energy -244.238338828 
NL    Energy 0.068337076 
SC+NL Energy -244.170001752 
NL done in    0.0 sec
-------------------------------------------------------------------------------

----------------
TOTAL SCF ENERGY
----------------

Total Energy       :         -244.17000175 Eh           -6644.20353 eV

Components:
Nuclear Repulsion  :           13.46376319 Eh             366.36762 eV
Electronic Energy  :         -257.63376494 Eh           -7010.57115 eV
One Electron Energy:         -365.37974181 Eh           -9942.48824 eV
Two Electron Energy:          107.74597687 Eh            2931.91709 eV

Virial components:
Potential Energy   :         -487.68580011 Eh          -13270.60529 eV
Kinetic Energy     :          243.51579836 Eh            6626.40175 eV
Virial Ratio       :            2.00268649


DFT components:
N(Alpha)           :        8.000002012921 electrons
N(Beta)            :        8.000002012921 electrons
N(Total)           :       16.000004025842 electrons
E(X)               :      -14.179602272811 Eh       
E(C)               :       -0.565284940149 Eh       
NL Energy, E(C,NL) :        0.068337075955 Eh       
E(XC)              :      -14.676550137005 Eh       
DFET-embed. en.    :        0.000000000000 Eh       

---------------
SCF CONVERGENCE
---------------

  Last Energy change         ...   -1.6400e-07  Tolerance :   1.0000e-06
  Last MAX-Density change    ...    1.0032e-04  Tolerance :   1.0000e-05
  Last RMS-Density change    ...    2.5094e-06  Tolerance :   1.0000e-06
  Last Orbital Gradient      ...    7.3882e-05  Tolerance :   5.0000e-05
  Last Orbital Rotation      ...    2.3015e-05  Tolerance :   5.0000e-05

             **** THE GBW FILE WAS UPDATED (176_al.gbw) ****
             **** DENSITY FILE WAS UPDATED (176_al.scfp) ****
             **** ENERGY FILE WAS UPDATED (176_al.en.tmp) ****
             **** THE GBW FILE WAS UPDATED (176_al.gbw) ****
             **** DENSITY FILE WAS UPDATED (176_al.scfp) ****
----------------
ORBITAL ENERGIES
----------------

  NO   OCC          E(Eh)            E(eV) 
   0   2.0000     -56.314625     -1532.3988 
   1   2.0000      -4.299233      -116.9881 
   2   2.0000      -2.818076       -76.6837 
   3   2.0000      -2.809432       -76.4485 
   4   2.0000      -2.809431       -76.4485 
   5   2.0000      -0.528524       -14.3819 
   6   2.0000      -0.399619       -10.8742 
   7   2.0000      -0.399617       -10.8741 
   8   0.0000      -0.008256        -0.2246 
   9   0.0000       0.027686         0.7534 
  10   0.0000       0.067217         1.8291 
  11   0.0000       0.073745         2.0067 
  12   0.0000       0.073755         2.0070 
  13   0.0000       0.088091         2.3971 
  14   0.0000       0.088096         2.3972 
  15   0.0000       0.119086         3.2405 
  16   0.0000       0.119092         3.2406 
  17   0.0000       0.156556         4.2601 
  18   0.0000       0.198055         5.3893 
  19   0.0000       0.198070         5.3898 
  20   0.0000       0.206435         5.6174 
  21   0.0000       0.230989         6.2855 
  22   0.0000       0.256047         6.9674 
  23   0.0000       0.256053         6.9676 
  24   0.0000       0.281152         7.6505 
  25   0.0000       0.308879         8.4050 
  26   0.0000       0.308892         8.4054 
  27   0.0000       0.321969         8.7612 
  28   0.0000       0.332200         9.0396 
  29   0.0000       0.347361         9.4522 
  30   0.0000       0.347368         9.4524 
  31   0.0000       0.429354        11.6833 
  32   0.0000       0.429360        11.6835 
  33   0.0000       0.464191        12.6313 
  34   0.0000       0.517488        14.0816 
  35   0.0000       0.517500        14.0819 
  36   0.0000       0.602125        16.3847 
  37   0.0000       0.654417        17.8076 
  38   0.0000       0.654428        17.8079 
  39   0.0000       0.788114        21.4457 
  40   0.0000       0.788125        21.4460 
  41   0.0000       0.824161        22.4266 
  42   0.0000       0.850453        23.1420 
  43   0.0000       0.852465        23.1968 
  44   0.0000       0.852479        23.1971 
  45   0.0000       0.854877        23.2624 
  46   0.0000       0.904536        24.6137 
  47   0.0000       0.904553        24.6141 
  48   0.0000       0.953209        25.9381 
  49   0.0000       0.953221        25.9385 
  50   0.0000       1.139015        30.9942 
  51   0.0000       1.144790        31.1513 
  52   0.0000       1.145632        31.1742 
  53   0.0000       1.145640        31.1745 
  54   0.0000       1.195591        32.5337 
  55   0.0000       1.195598        32.5339 
  56   0.0000       1.401520        38.1373 
  57   0.0000       1.522360        41.4255 
  58   0.0000       1.542468        41.9727 
  59   0.0000       1.542481        41.9730 
  60   0.0000       1.957712        53.2721 
  61   0.0000       2.223055        60.4924 
  62   0.0000       2.223056        60.4924 
  63   0.0000       2.780524        75.6619 
  64   0.0000       2.861040        77.8528 
  65   0.0000       2.861043        77.8529 
  66   0.0000       3.167894        86.2028 
  67   0.0000       3.167940        86.2040 
  68   0.0000       3.209122        87.3246 
  69   0.0000       3.233073        87.9764 
  70   0.0000       3.233089        87.9768 
  71   0.0000       3.339074        90.8608 
  72   0.0000       3.339119        90.8620 
  73   0.0000       3.339549        90.8737 
  74   0.0000       3.370451        91.7146 
  75   0.0000       3.373536        91.7986 
  76   0.0000       3.373551        91.7990 
  77   0.0000       3.415353        92.9365 
  78   0.0000       3.561402        96.9107 
  79   0.0000       3.561446        96.9119 
  80   0.0000       3.621395        98.5432 
  81   0.0000       3.621462        98.5450 
  82   0.0000       3.623467        98.5996 
  83   0.0000       3.646661        99.2307 
  84   0.0000       3.886916       105.7684 
  85   0.0000       3.886999       105.7706 
  86   0.0000       3.962923       107.8366 
  87   0.0000       4.019352       109.3721 
  88   0.0000       4.019364       109.3724 
  89   0.0000       4.109371       111.8217 
  90   0.0000       4.109374       111.8217 
  91   0.0000       4.332399       117.8906 
  92   0.0000       4.343517       118.1931 
  93   0.0000       4.516046       122.8879 
  94   0.0000       4.516064       122.8884 
  95   0.0000       8.571156       233.2330 
  96   0.0000       9.312199       253.3978 
  97   0.0000       9.716312       264.3943 
  98   0.0000       9.716312       264.3943 

                    ********************************
                    * MULLIKEN POPULATION ANALYSIS *
                    ********************************

-----------------------
MULLIKEN ATOMIC CHARGES
-----------------------
   0 Al:    0.391161
   1 H :   -0.130397
   2 H :   -0.130397
   3 H :   -0.130368
Sum of atomic charges:   -0.0000000

--------------------------------
MULLIKEN REDUCED ORBITAL CHARGES
--------------------------------
  0 Als       :     5.106149  s :     5.106149
      pz      :     2.000115  p :     7.311081
      px      :     2.655504
      py      :     2.655462
      dz2     :     0.015625  d :     0.177642
      dxz     :     0.000000
      dyz     :     0.000000
      dx2y2   :     0.081008
      dxy     :     0.081008
      f0      :    -0.000000  f :     0.013967
      f+1     :     0.002156
      f-1     :     0.002158
      f+2     :     0.000000
      f-2     :     0.000000
      f+3     :     0.009653
      f-3     :    -0.000000
  1 H s       :     1.124337  s :     1.124337
      pz      :    -0.000042  p :     0.005560
      px      :     0.004796
      py      :     0.000805
      dz2     :     0.000098  d :     0.000500
      dxz     :     0.000001
      dyz     :     0.000003
      dx2y2   :     0.000127
      dxy     :     0.000272
  2 H s       :     1.124337  s :     1.124337
      pz      :    -0.000042  p :     0.005560
      px      :     0.004796
      py      :     0.000805
      dz2     :     0.000098  d :     0.000500
      dxz     :     0.000001
      dyz     :     0.000003
      dx2y2   :     0.000127
      dxy     :     0.000272
  3 H s       :     1.124288  s :     1.124288
      pz      :    -0.000042  p :     0.005580
      px      :    -0.001181
      py      :     0.006803
      dz2     :     0.000098  d :     0.000500
      dxz     :     0.000004
      dyz     :     0.000000
      dx2y2   :     0.000345
      dxy     :     0.000054


                     *******************************
                     * LOEWDIN POPULATION ANALYSIS *
                     *******************************

----------------------
LOEWDIN ATOMIC CHARGES
----------------------
   0 Al:    0.624589
   1 H :   -0.208197
   2 H :   -0.208197
   3 H :   -0.208195

-------------------------------
LOEWDIN REDUCED ORBITAL CHARGES
-------------------------------
  0 Als       :     4.709216  s :     4.709216
      pz      :     1.998662  p :     7.306289
      px      :     2.653813
      py      :     2.653813
      dz2     :     0.027448  d :     0.322529
      dxz     :     0.000000
      dyz     :     0.000000
      dx2y2   :     0.147541
      dxy     :     0.147540
      f0      :     0.000000  f :     0.037377
      f+1     :     0.008072
      f-1     :     0.008072
      f+2     :     0.000000
      f-2     :     0.000000
      f+3     :     0.021233
      f-3     :     0.000000
  1 H s       :     1.057610  s :     1.057610
      pz      :     0.000429  p :     0.148396
      px      :     0.059147
      py      :     0.088820
      dz2     :     0.000445  d :     0.002191
      dxz     :     0.000004
      dyz     :     0.000012
      dx2y2   :     0.000632
      dxy     :     0.001097
  2 H s       :     1.057610  s :     1.057610
      pz      :     0.000429  p :     0.148396
      px      :     0.059147
      py      :     0.088820
      dz2     :     0.000445  d :     0.002191
      dxz     :     0.000004
      dyz     :     0.000012
      dx2y2   :     0.000632
      dxy     :     0.001097
  3 H s       :     1.057607  s :     1.057607
      pz      :     0.000429  p :     0.148397
      px      :     0.103655
      py      :     0.044312
      dz2     :     0.000445  d :     0.002191
      dxz     :     0.000017
      dyz     :     0.000000
      dx2y2   :     0.001330
      dxy     :     0.000399


                      *****************************
                      * MAYER POPULATION ANALYSIS *
                      *****************************

  NA   - Mulliken gross atomic population
  ZA   - Total nuclear charge
  QA   - Mulliken gross atomic charge
  VA   - Mayer's total valence
  BVA  - Mayer's bonded valence
  FA   - Mayer's free valence

  ATOM       NA         ZA         QA         VA         BVA        FA
  0 Al    12.6088    13.0000     0.3912     2.8234     2.8234    -0.0000
  1 H      1.1304     1.0000    -0.1304     0.9686     0.9686     0.0000
  2 H      1.1304     1.0000    -0.1304     0.9686     0.9686    -0.0000
  3 H      1.1304     1.0000    -0.1304     0.9687     0.9687     0.0000

  Mayer bond orders larger than 0.100000
B(  0-Al,  1-H ) :   0.9411 B(  0-Al,  2-H ) :   0.9411 B(  0-Al,  3-H ) :   0.9412 


-------
TIMINGS
-------

Total SCF time: 0 days 0 hours 0 min 1 sec 

Total time                  ....       1.556 sec
Sum of individual times     ....       1.369 sec  ( 88.0%)

Fock matrix formation       ....       1.144 sec  ( 73.6%)
  XC integration            ....       0.125 sec  ( 10.9% of F)
    Basis function eval.    ....       0.014 sec  ( 11.5% of XC)
    Density eval.           ....       0.019 sec  ( 15.2% of XC)
    XC-Functional eval.     ....       0.011 sec  (  8.5% of XC)
    XC-Potential eval.      ....       0.029 sec  ( 23.5% of XC)
Diagonalization             ....       0.007 sec  (  0.4%)
Density matrix formation    ....       0.005 sec  (  0.3%)
Population analysis         ....       0.002 sec  (  0.1%)
Initial guess               ....       0.100 sec  (  6.4%)
Orbital Transformation      ....       0.000 sec  (  0.0%)
Orbital Orthonormalization  ....       0.000 sec  (  0.0%)
DIIS solution               ....       0.002 sec  (  0.1%)
SOSCF solution              ....       0.002 sec  (  0.1%)
Grid generation             ....       0.107 sec  (  6.9%)

-------------------------   --------------------
FINAL SINGLE POINT ENERGY      -244.170001751556
-------------------------   --------------------


                            ***************************************
                            *     ORCA property calculations      *
                            ***************************************

                                    ---------------------
                                    Active property flags
                                    ---------------------
   (+) Dipole Moment


------------------------------------------------------------------------------
                       ORCA ELECTRIC PROPERTIES CALCULATION
------------------------------------------------------------------------------

Dipole Moment Calculation                       ... on
Quadrupole Moment Calculation                   ... off
Polarizability Calculation                      ... off
GBWName                                         ... 176_al.gbw
Electron density file                           ... 176_al.scfp
The origin for moment calculation is the CENTER OF MASS  = (-0.000001,  0.000000  0.000000)

-------------
DIPOLE MOMENT
-------------
                                X             Y             Z
Electronic contribution:      0.00002      -0.00000      -0.00000
Nuclear contribution   :     -0.00001       0.00000       0.00000
                        -----------------------------------------
Total Dipole Moment    :      0.00002      -0.00000      -0.00000
                        -----------------------------------------
Magnitude (a.u.)       :      0.00002
Magnitude (Debye)      :      0.00004



--------------------
Rotational spectrum 
--------------------
 
Rotational constants in cm-1:     4.350150     4.350130     2.175070 
Rotational constants in MHz : 130414.210579 130413.615544 65206.956531 

 Dipole components along the rotational axes: 
x,y,z [a.u.] :     0.000016    -0.000000    -0.000000 
x,y,z [Debye]:     0.000040    -0.000000    -0.000000 

 

Timings for individual modules:

Sum of individual times         ...        2.619 sec (=   0.044 min)
GTO integral calculation        ...        0.667 sec (=   0.011 min)  25.5 %
SCF iterations                  ...        1.953 sec (=   0.033 min)  74.5 %
                             ****ORCA TERMINATED NORMALLY****
TOTAL RUN TIME: 0 days 0 hours 0 minutes 3 seconds 64 msec
