
                                 *****************
                                 * O   R   C   A *
                                 *****************

           --- An Ab Initio, DFT and Semiempirical electronic structure package ---

                  #######################################################
                  #                        -***-                        #
                  #          Department of theory and spectroscopy      #
                  #               Directorship: Frank Neese             #
                  #        Max Planck Institute fuer Kohlenforschung    #
                  #                Kaiser Wilhelm Platz 1               #
                  #                 D-45470 Muelheim/Ruhr               #
                  #                      Germany                        #
                  #                                                     #
                  #                  All rights reserved                #
                  #                        -***-                        #
                  #######################################################


                         Program Version 4.2.0 -  RELEASE  -


 With contributions from (in alphabetic order):
   Daniel Aravena         : Magnetic Suceptibility
   Michael Atanasov       : Ab Initio Ligand Field Theory (pilot matlab implementation)
   Alexander A. Auer      : GIAO ZORA, VPT2
   Ute Becker             : Parallelization
   Giovanni Bistoni       : ED, misc. LED, open-shell LED, HFLED
   Martin Brehm           : Molecular dynamics
   Dmytro Bykov           : SCF Hessian
   Vijay G. Chilkuri      : MRCI spin determinant printing, contributions to CSF-ICE
   Dipayan Datta          : RHF DLPNO-CCSD density
   Achintya Kumar Dutta   : EOM-CC, STEOM-CC
   Dmitry Ganyushin       : Spin-Orbit,Spin-Spin,Magnetic field MRCI
   Miquel Garcia          : C-PCM Hessian, Gaussian charge scheme
   Yang Guo               : DLPNO-NEVPT2, CIM, IAO-localization
   Andreas Hansen         : Spin unrestricted coupled pair/coupled cluster methods
   Benjamin Helmich-Paris : CASSCF linear response (MC-RPA)
   Lee Huntington         : MR-EOM, pCC
   Robert Izsak           : Overlap fitted RIJCOSX, COSX-SCS-MP3, EOM
   Christian Kollmar      : KDIIS, OOCD, Brueckner-CCSD(T), CCSD density
   Simone Kossmann        : Meta GGA functionals, TD-DFT gradient, OOMP2, MP2 Hessian
   Martin Krupicka        : AUTO-CI
   Lucas Lang             : DCDCAS
   Dagmar Lenk            : GEPOL surface, SMD
   Dimitrios Liakos       : Extrapolation schemes; Compound Job, initial MDCI parallelization
   Dimitrios Manganas     : Further ROCIS development; embedding schemes
   Dimitrios Pantazis     : SARC Basis sets
   Taras Petrenko         : DFT Hessian,TD-DFT gradient, ASA, ECA, R-Raman, ABS, FL, XAS/XES, NRVS
   Peter Pinski           : DLPNO-MP2, DLPNO-MP2 Gradient
   Christoph Reimann      : Effective Core Potentials
   Marius Retegan         : Local ZFS, SOC
   Christoph Riplinger    : Optimizer, TS searches, QM/MM, DLPNO-CCSD(T), (RO)-DLPNO pert. Triples
   Tobias Risthaus        : Range-separated hybrids, TD-DFT gradient, RPA, STAB
   Michael Roemelt        : Original ROCIS implementation
   Masaaki Saitow         : Open-shell DLPNO-CCSD energy and density
   Barbara Sandhoefer     : DKH picture change effects
   Avijit Sen             : IP-ROCIS
   Kantharuban Sivalingam : CASSCF convergence, NEVPT2, FIC-MRCI
   Bernardo de Souza      : ESD, SOC TD-DFT
   Georgi Stoychev        : AutoAux, RI-MP2 NMR
   Willem Van den Heuvel  : Paramagnetic NMR
   Boris Wezisla          : Elementary symmetry handling
   Frank Wennmohs         : Technical directorship


 We gratefully acknowledge several colleagues who have allowed us to
 interface, adapt or use parts of their codes:
   Stefan Grimme, W. Hujo, H. Kruse,             : VdW corrections, initial TS optimization,
                  C. Bannwarth                     DFT functionals, gCP, sTDA/sTD-DF
   Ed Valeev, F. Pavosevic, A. Kumar             : LibInt (2-el integral package), F12 methods
   Garnet Chan, S. Sharma, J. Yang, R. Olivares  : DMRG
   Ulf Ekstrom                                   : XCFun DFT Library
   Mihaly Kallay                                 : mrcc  (arbitrary order and MRCC methods)
   Andreas Klamt, Michael Diedenhofen            : otool_cosmo (COSMO solvation model)
   Jiri Pittner, Ondrej Demel                    : Mk-CCSD
   Frank Weinhold                                : gennbo (NPA and NBO analysis)
   Christopher J. Cramer and Donald G. Truhlar   : smd solvation model
   Lars Goerigk                                  : TD-DFT with DH, B97 family of functionals
   V. Asgeirsson, H. Jonsson                     : NEB implementation
   FAccTs GmbH                                   : IRC, NEB, NEB-TS, Multilevel, MM, QM/MM, CI optimization
   S Lehtola, MJT Oliveira, MAL Marques          : LibXC Library


 Your calculation uses the libint2 library for the computation of 2-el integrals
 For citations please refer to: http://libint.valeyev.net

 Your ORCA version has been built with support for libXC version: 4.2.3
 For citations please refer to: https://tddft.org/programs/libxc/

 This ORCA versions uses:
   CBLAS   interface :  Fast vector & matrix operations
   LAPACKE interface :  Fast linear algebra routines
   SCALAPACK package :  Parallel linear algebra routines


Your calculation utilizes the DFT-NL dispersion correction.
Cite in your paper:
Vydrov, O. A.; Van Voorhis, T. J. Chem. Phys. 2010, 133, 244103
Hujo, W.; Grimme, S. J. Chem. Theory Comput. 2011, 7, 3866 
   

----- Orbital basis set information -----
Your calculation utilizes the basis: def2-TZVPPD
   F. Weigend and R. Ahlrichs, Phys. Chem. Chem. Phys. 7, 3297 (2005).
   D. Rappoport and F. Furche, J. Chem. Phys. 133 134105 (2010).

----- AuxJK basis set information -----
Your calculation utilizes the auxiliary basis: def2/JK
   H-Ba, Hf-Rn: F. Weigend, J. Comput. Chem. 29, 167 (2008).

================================================================================
                                        WARNINGS
                       Please study these warnings very carefully!
================================================================================


INFO   : the flag for use of LIBINT has been found!

================================================================================
                                       INPUT FILE
================================================================================
NAME = 177_si.in
|  1> #
|  2> # 177_si wB97M-V/Def2-TZVPPD
|  3> #
|  4> ! wb97m-v def2-tzvppd def2/jk grid4 nofinalgrid
|  5> 
|  6> *xyz 0 1
|  7> Si         0.00000        0.00000        0.00000
|  8> H         -0.86552        0.86552        0.86552
|  9> H          0.86552       -0.86552        0.86552
| 10> H         -0.86552       -0.86552       -0.86552
| 11> H          0.86552        0.86552       -0.86552
| 12> *
| 13> 
| 14> %maxcore 5000
| 15> 
| 16> %pal
| 17> nprocs = 24
| 18> end
| 19> 
| 20> 
| 21>                          ****END OF INPUT****
================================================================================

                       ****************************
                       * Single Point Calculation *
                       ****************************

---------------------------------
CARTESIAN COORDINATES (ANGSTROEM)
---------------------------------
  Si     0.000000    0.000000    0.000000
  H     -0.865520    0.865520    0.865520
  H      0.865520   -0.865520    0.865520
  H     -0.865520   -0.865520   -0.865520
  H      0.865520    0.865520   -0.865520

----------------------------
CARTESIAN COORDINATES (A.U.)
----------------------------
  NO LB      ZA    FRAG     MASS         X           Y           Z
   0 Si   14.0000    0    28.086    0.000000    0.000000    0.000000
   1 H     1.0000    0     1.008   -1.635596    1.635596    1.635596
   2 H     1.0000    0     1.008    1.635596   -1.635596    1.635596
   3 H     1.0000    0     1.008   -1.635596   -1.635596   -1.635596
   4 H     1.0000    0     1.008    1.635596    1.635596   -1.635596

--------------------------------
INTERNAL COORDINATES (ANGSTROEM)
--------------------------------
 Si     0   0   0     0.000000000000     0.00000000     0.00000000
 H      1   0   0     1.499124614967     0.00000000     0.00000000
 H      1   2   0     1.499124614967   109.47122063     0.00000000
 H      1   2   3     1.499124614967   109.47122063   120.00000000
 H      1   2   3     1.499124614967   109.47122063   240.00000000

---------------------------
INTERNAL COORDINATES (A.U.)
---------------------------
 Si     0   0   0     0.000000000000     0.00000000     0.00000000
 H      1   0   0     2.832934962908     0.00000000     0.00000000
 H      1   2   0     2.832934962908   109.47122063     0.00000000
 H      1   2   3     2.832934962908   109.47122063   120.00000000
 H      1   2   3     2.832934962908   109.47122063   240.00000000

---------------------
BASIS SET INFORMATION
---------------------
There are 2 groups of distinct atoms

 Group   1 Type Si  : 15s9p4d1f contracted to 6s5p4d1f pattern {732111/51111/1111/1}
 Group   2 Type H   : 5s3p1d contracted to 3s3p1d pattern {311/111/1}

Atom   0Si   basis set group =>   1
Atom   1H    basis set group =>   2
Atom   2H    basis set group =>   2
Atom   3H    basis set group =>   2
Atom   4H    basis set group =>   2
----------------------------------
AUXILIARY/JK BASIS SET INFORMATION
----------------------------------
There are 2 groups of distinct atoms

 Group   1 Type Si  : 16s12p10d4f1g contracted to 13s11p9d4f1g pattern {4111111111111/21111111111/211111111/1111/1}
 Group   2 Type H   : 4s2p2d contracted to 2s2p2d pattern {31/11/11}

Atom   0Si   basis set group =>   1
Atom   1H    basis set group =>   2
Atom   2H    basis set group =>   2
Atom   3H    basis set group =>   2
Atom   4H    basis set group =>   2


           ************************************************************
           *        Program running with 24 parallel MPI-processes    *
           *              working on a common directory               *
           ************************************************************
------------------------------------------------------------------------------
                           ORCA GTO INTEGRAL CALCULATION
------------------------------------------------------------------------------

                         BASIS SET STATISTICS AND STARTUP INFO

 # of primitive gaussian shells          ...   65
 # of primitive gaussian functions       ...  145
 # of contracted shells                  ...   44
 # of contracted basis functions         ...  116
 Highest angular momentum                ...    3
 Maximum contraction depth               ...    7
 Integral package used                   ... LIBINT
 Integral threshhold            Thresh   ...  1.000e-10
 Primitive cut-off              TCut     ...  1.000e-11


------------------------------ INTEGRAL EVALUATION ----------------------------


 * One electron integrals 
 Pre-screening matrix                    ... done
 Shell pair data                         ... done (   0.000 sec)



           ************************************************************
           *        Program running with 24 parallel MPI-processes    *
           *              working on a common directory               *
           ************************************************************
-------------------------------------------------------------------------------
                                 ORCA SCF
-------------------------------------------------------------------------------

------------
SCF SETTINGS
------------
Hamiltonian:
 Density Functional     Method          .... DFT(GTOs)
 Exchange Functional    Exchange        .... WB97M-V
 Correlation Functional Correlation     .... WB97M-V
 Gradients option       PostSCFGGA      .... off
 Hybrid DFT is turned on
   Fraction HF Exchange ScalHFX         ....  0.150000
   Scaling of DF-GGA-X  ScalDFX         ....  0.000000
   Scaling of DF-GGA-C  ScalDFC         ....  1.000000
   Scaling of DF-LDA-C  ScalLDAC        ....  1.000000
   Perturbative correction              ....  0.000000
   Density functional embedding theory  .... OFF
 Long-range corrected/Screened/Range-Separated Hybrid DFT is turned on
   Amount of maximum screened exact exchange              ....  0.850000
   Range separation parameter mu (erf(mu*r12)/r12)        ....  0.300000
   NL short-range parameter             ....  6.000000
   NL long-range parameter              ....  0.010000


General Settings:
 Integral files         IntName         .... 177_si
 Hartree-Fock type      HFTyp           .... RHF
 Total Charge           Charge          ....    0
 Multiplicity           Mult            ....    1
 Number of Electrons    NEL             ....   18
 Basis Dimension        Dim             ....  116
 Nuclear Repulsion      ENuc            ....     21.0644562602 Eh

Convergence Acceleration:
 DIIS                   CNVDIIS         .... on
   Start iteration      DIISMaxIt       ....    12
   Startup error        DIISStart       ....  0.200000
   # of expansion vecs  DIISMaxEq       ....     5
   Bias factor          DIISBfac        ....   1.050
   Max. coefficient     DIISMaxC        ....  10.000
 Newton-Raphson         CNVNR           .... off
 SOSCF                  CNVSOSCF        .... on
   Start iteration      SOSCFMaxIt      ....   150
   Startup grad/error   SOSCFStart      ....  0.003300
 Level Shifting         CNVShift        .... on
   Level shift para.    LevelShift      ....    0.2500
   Turn off err/grad.   ShiftErr        ....    0.0010
 Zerner damping         CNVZerner       .... off
 Static damping         CNVDamp         .... on
   Fraction old density DampFac         ....    0.7000
   Max. Damping (<1)    DampMax         ....    0.9800
   Min. Damping (>=0)   DampMin         ....    0.0000
   Turn off err/grad.   DampErr         ....    0.1000
 Fernandez-Rico         CNVRico         .... off

SCF Procedure:
 Maximum # iterations   MaxIter         ....   125
 SCF integral mode      SCFMode         .... Direct
   Integral package                     .... LIBINT
 Reset frequency        DirectResetFreq ....    20
 Integral Threshold     Thresh          ....  1.000e-10 Eh
 Primitive CutOff       TCut            ....  1.000e-11 Eh

Convergence Tolerance:
 Convergence Check Mode ConvCheckMode   .... Total+1el-Energy
 Convergence forced     ConvForced      .... 0
 Energy Change          TolE            ....  1.000e-06 Eh
 1-El. energy change                    ....  1.000e-03 Eh
 Orbital Gradient       TolG            ....  5.000e-05
 Orbital Rotation angle TolX            ....  5.000e-05
 DIIS Error             TolErr          ....  1.000e-06


Diagonalization of the overlap matrix:
Smallest eigenvalue                        ... 1.977e-04
Time for diagonalization                   ...    0.004 sec
Threshold for overlap eigenvalues          ... 1.000e-08
Number of eigenvalues below threshold      ... 0
Time for construction of square roots      ...    0.015 sec
Total time needed                          ...    0.019 sec

-------------------
DFT GRID GENERATION
-------------------

General Integration Accuracy     IntAcc      ...  4.670
Radial Grid Type                 RadialGrid  ... Gauss-Chebyshev
Angular Grid (max. acc.)         AngularGrid ... Lebedev-302
Angular grid pruning method      GridPruning ... 3 (G Style)
Weight generation scheme         WeightScheme... Becke
Basis function cutoff            BFCut       ...    1.0000e-10
Integration weight cutoff        WCut        ...    1.0000e-14
Grids for H and He will be reduced by one unit

# of grid points (after initial pruning)     ...  20314 (   0.0 sec)
# of grid points (after weights+screening)   ...  19890 (   0.0 sec)
nearest neighbour list constructed           ...    0.0 sec
Grid point re-assignment to atoms done       ...    0.0 sec
Grid point division into batches done        ...    0.1 sec
Reduced shell lists constructed in    0.1 sec

Total number of grid points                  ...    19890
Total number of batches                      ...      313
Average number of points per batch           ...       63
Average number of grid points per atom       ...     3978
Average number of shells per batch           ...    40.27 (91.52%)
Average number of basis functions per batch  ...   106.93 (92.18%)
Average number of large shells per batch     ...    37.73 (93.71%)
Average number of large basis fcns per batch ...   102.00 (95.39%)
Maximum spatial batch extension              ...   1.89,  1.89,  1.89 au
Average spatial batch extension              ...   0.08,  0.08,  0.07 au

Time for grid setup =    0.140 sec

------------------------------
INITIAL GUESS: MODEL POTENTIAL
------------------------------
Loading Hartree-Fock densities                     ... done
Calculating cut-offs                               ... done
Setting up the integral package                    ... done
Initializing the effective Hamiltonian             ... done
Starting the Coulomb interaction                   ... done (   0.0 sec)
Reading the grid                                   ... done
Mapping shells                                     ... done
Starting the XC term evaluation                    ... done (   0.0 sec)
  promolecular density results
     # of electrons  =     17.998136155
     EX              =    -21.361522881
     EC              =     -0.616700931
     EX+EC           =    -21.978223813
Transforming the Hamiltonian                       ... done (   0.0 sec)
Diagonalizing the Hamiltonian                      ... done (   0.0 sec)
Back transforming the eigenvectors                 ... done (   0.0 sec)
Now organizing SCF variables                       ... done
                      ------------------
                      INITIAL GUESS DONE (   0.3 sec)
                      ------------------
--------------
SCF ITERATIONS
--------------
ITER       Energy         Delta-E        Max-DP      RMS-DP      [F,P]     Damp
               ***  Starting incremental Fock matrix formation  ***
  0   -291.9074509885   0.000000000000 0.02421175  0.00046775  0.0470952 0.7000
  1   -291.9113116209  -0.003860632450 0.02028198  0.00042149  0.0357754 0.7000
                               ***Turning on DIIS***
  2   -291.9141922424  -0.002880621493 0.04485528  0.00109105  0.0256948 0.0000
                      *** Initiating the SOSCF procedure ***
                           *** Shutting down DIIS ***
                      *** Re-Reading the Fockian *** 
                      *** Removing any level shift *** 
ITER      Energy       Delta-E        Grad      Rot      Max-DP    RMS-DP
  3   -291.92098527  -0.0067930269  0.002105  0.002105  0.014409  0.000310
               *** Restarting incremental Fock matrix formation ***
  4   -291.92109294  -0.0001076725  0.000755  0.001073  0.005369  0.000121
  5   -291.92110208  -0.0000091404  0.000196  0.000274  0.001448  0.000036
  6   -291.92110249  -0.0000004030  0.000105  0.000023  0.000189  0.000003
                 **** Energy Check signals convergence ****
              ***Rediagonalizing the Fockian in SOSCF/NRSCF***

               *****************************************************
               *                     SUCCESS                       *
               *           SCF CONVERGED AFTER   7 CYCLES          *
               *****************************************************


Setting up the DFT-NL grid :

General Integration Accuracy     IntAcc      ...  4.340
Radial Grid Type                 RadialGrid  ... Gauss-Chebyshev
Angular Grid (max. acc.)         AngularGrid ... Lebedev-110
Angular grid pruning method      GridPruning ... 3 (G Style)
Weight generation scheme         WeightScheme... Becke
Basis function cutoff            BFCut       ...    1.0000e-10
Integration weight cutoff        WCut        ...    1.0000e-14
Grids for H and He will be reduced by one unit

# of grid points (after initial pruning)     ...   5042 (   0.0 sec)
# of grid points (after weights+screening)   ...   4874 (   0.0 sec)
nearest neighbour list constructed           ...    0.0 sec
Grid point re-assignment to atoms done       ...    0.0 sec
Grid point division into batches done        ...    0.0 sec
Reduced shell lists constructed in    0.0 sec

Total number of grid points                  ...     4874
Total number of batches                      ...       78
Average number of points per batch           ...       62
Average number of grid points per atom       ...      975
Average number of shells per batch           ...    35.20 (80.00%)
Average number of basis functions per batch  ...    92.80 (80.00%)
Average number of large shells per batch     ...    33.60 (95.45%)
Average number of large basis fcns per batch ...    89.60 (96.55%)
Maximum spatial batch extension              ...   2.52,  2.52,  2.52 au
Average spatial batch extension              ...   0.13,  0.13,  0.13 au

Final grid set up in    0.0 sec

-------------------------------------------------------------------------------
                         DFT-NL dispersion correction                          
-------------------------------------------------------------------------------

SC Energy -291.921102514 
NL    Energy 0.075484765 
SC+NL Energy -291.845617749 
NL done in    0.0 sec
-------------------------------------------------------------------------------

----------------
TOTAL SCF ENERGY
----------------

Total Energy       :         -291.84561775 Eh           -7941.52300 eV

Components:
Nuclear Repulsion  :           21.06445626 Eh             573.19300 eV
Electronic Energy  :         -312.91007401 Eh           -8514.71599 eV
One Electron Energy:         -445.19110354 Eh          -12114.26580 eV
Two Electron Energy:          132.28102953 Eh            3599.54981 eV

Virial components:
Potential Energy   :         -582.93317163 Eh          -15862.41803 eV
Kinetic Energy     :          291.08755388 Eh            7920.89503 eV
Virial Ratio       :            2.00260425


DFT components:
N(Alpha)           :        9.000009189854 electrons
N(Beta)            :        9.000009189854 electrons
N(Total)           :       18.000018379708 electrons
E(X)               :      -16.094486550807 Eh       
E(C)               :       -0.634801605047 Eh       
NL Energy, E(C,NL) :        0.075484765084 Eh       
E(XC)              :      -16.653803390770 Eh       
DFET-embed. en.    :        0.000000000000 Eh       

---------------
SCF CONVERGENCE
---------------

  Last Energy change         ...   -2.8414e-08  Tolerance :   1.0000e-06
  Last MAX-Density change    ...    4.1155e-05  Tolerance :   1.0000e-05
  Last RMS-Density change    ...    6.9750e-07  Tolerance :   1.0000e-06
  Last Orbital Gradient      ...    4.1816e-06  Tolerance :   5.0000e-05
  Last Orbital Rotation      ...    4.5729e-06  Tolerance :   5.0000e-05

             **** THE GBW FILE WAS UPDATED (177_si.gbw) ****
             **** DENSITY FILE WAS UPDATED (177_si.scfp) ****
             **** ENERGY FILE WAS UPDATED (177_si.en.tmp) ****
             **** THE GBW FILE WAS UPDATED (177_si.gbw) ****
             **** DENSITY FILE WAS UPDATED (177_si.scfp) ****
----------------
ORBITAL ENERGIES
----------------

  NO   OCC          E(Eh)            E(eV) 
   0   2.0000     -66.410133     -1807.1116 
   1   2.0000      -5.446352      -148.2028 
   2   2.0000      -3.759844      -102.3106 
   3   2.0000      -3.759844      -102.3106 
   4   2.0000      -3.759844      -102.3106 
   5   2.0000      -0.661747       -18.0071 
   6   2.0000      -0.447993       -12.1905 
   7   2.0000      -0.447993       -12.1905 
   8   2.0000      -0.447993       -12.1905 
   9   0.0000       0.041449         1.1279 
  10   0.0000       0.080550         2.1919 
  11   0.0000       0.080550         2.1919 
  12   0.0000       0.080550         2.1919 
  13   0.0000       0.105902         2.8817 
  14   0.0000       0.105902         2.8817 
  15   0.0000       0.124549         3.3892 
  16   0.0000       0.124549         3.3892 
  17   0.0000       0.124549         3.3892 
  18   0.0000       0.186044         5.0625 
  19   0.0000       0.208137         5.6637 
  20   0.0000       0.208138         5.6637 
  21   0.0000       0.208138         5.6637 
  22   0.0000       0.273233         7.4351 
  23   0.0000       0.273233         7.4351 
  24   0.0000       0.290447         7.9035 
  25   0.0000       0.290447         7.9035 
  26   0.0000       0.290447         7.9035 
  27   0.0000       0.315092         8.5741 
  28   0.0000       0.370920        10.0932 
  29   0.0000       0.370920        10.0932 
  30   0.0000       0.370920        10.0932 
  31   0.0000       0.398977        10.8567 
  32   0.0000       0.398977        10.8567 
  33   0.0000       0.398978        10.8567 
  34   0.0000       0.453287        12.3346 
  35   0.0000       0.493565        13.4306 
  36   0.0000       0.493566        13.4306 
  37   0.0000       0.493566        13.4306 
  38   0.0000       0.532460        14.4890 
  39   0.0000       0.532460        14.4890 
  40   0.0000       0.706324        19.2201 
  41   0.0000       0.706324        19.2201 
  42   0.0000       0.706324        19.2201 
  43   0.0000       0.709361        19.3027 
  44   0.0000       0.887099        24.1392 
  45   0.0000       0.887099        24.1392 
  46   0.0000       0.887099        24.1392 
  47   0.0000       0.981922        26.7195 
  48   0.0000       0.981922        26.7195 
  49   0.0000       0.981923        26.7195 
  50   0.0000       1.091438        29.6996 
  51   0.0000       1.091438        29.6996 
  52   0.0000       1.091439        29.6996 
  53   0.0000       1.137635        30.9566 
  54   0.0000       1.137635        30.9566 
  55   0.0000       1.280680        34.8491 
  56   0.0000       1.280680        34.8491 
  57   0.0000       1.312840        35.7242 
  58   0.0000       1.427536        38.8452 
  59   0.0000       1.427536        38.8452 
  60   0.0000       1.427536        38.8452 
  61   0.0000       1.455072        39.5945 
  62   0.0000       1.455072        39.5945 
  63   0.0000       1.455072        39.5945 
  64   0.0000       1.549194        42.1557 
  65   0.0000       1.549194        42.1557 
  66   0.0000       1.549194        42.1557 
  67   0.0000       1.581266        43.0284 
  68   0.0000       1.785943        48.5980 
  69   0.0000       1.785943        48.5980 
  70   0.0000       1.785944        48.5980 
  71   0.0000       2.740025        74.5599 
  72   0.0000       2.800780        76.2131 
  73   0.0000       2.800780        76.2131 
  74   0.0000       2.800780        76.2131 
  75   0.0000       3.200385        87.0869 
  76   0.0000       3.200385        87.0869 
  77   0.0000       3.200385        87.0869 
  78   0.0000       3.230732        87.9127 
  79   0.0000       3.230732        87.9127 
  80   0.0000       3.374434        91.8230 
  81   0.0000       3.374434        91.8230 
  82   0.0000       3.374434        91.8230 
  83   0.0000       3.511203        95.5447 
  84   0.0000       3.511203        95.5447 
  85   0.0000       3.542419        96.3941 
  86   0.0000       3.542419        96.3941 
  87   0.0000       3.542419        96.3941 
  88   0.0000       3.626992        98.6955 
  89   0.0000       3.737309       101.6973 
  90   0.0000       3.737309       101.6973 
  91   0.0000       3.737309       101.6973 
  92   0.0000       3.827478       104.1510 
  93   0.0000       3.827478       104.1510 
  94   0.0000       3.827478       104.1510 
  95   0.0000       3.998299       108.7993 
  96   0.0000       3.998299       108.7993 
  97   0.0000       3.998299       108.7993 
  98   0.0000       4.095946       111.4564 
  99   0.0000       4.095946       111.4564 
 100   0.0000       4.095946       111.4564 
 101   0.0000       4.134060       112.4935 
 102   0.0000       4.134060       112.4935 
 103   0.0000       4.409921       120.0000 
 104   0.0000       4.566581       124.2630 
 105   0.0000       4.566581       124.2630 
 106   0.0000       4.566581       124.2630 
 107   0.0000       4.811090       130.9164 
 108   0.0000       4.811090       130.9164 
 109   0.0000       5.443415       148.1229 
 110   0.0000       5.443415       148.1229 
 111   0.0000       5.443415       148.1229 
 112   0.0000       6.877539       187.1473 
 113   0.0000       6.877539       187.1473 
 114   0.0000       6.877539       187.1473 
 115   0.0000      12.345963       335.9507 

                    ********************************
                    * MULLIKEN POPULATION ANALYSIS *
                    ********************************

-----------------------
MULLIKEN ATOMIC CHARGES
-----------------------
   0 Si:    0.124404
   1 H :   -0.031100
   2 H :   -0.031101
   3 H :   -0.031101
   4 H :   -0.031101
Sum of atomic charges:   -0.0000000

--------------------------------
MULLIKEN REDUCED ORBITAL CHARGES
--------------------------------
  0 Sis       :     5.219852  s :     5.219852
      pz      :     2.801259  p :     8.403777
      px      :     2.801259
      py      :     2.801259
      dz2     :    -0.000000  d :     0.236842
      dxz     :     0.078947
      dyz     :     0.078947
      dx2y2   :    -0.000000
      dxy     :     0.078947
      f0      :     0.003255  f :     0.015125
      f+1     :     0.001221
      f-1     :     0.001221
      f+2     :     0.000000
      f-2     :     0.005360
      f+3     :     0.002034
      f-3     :     0.002034
  1 H s       :     1.022432  s :     1.022432
      pz      :     0.002620  p :     0.007860
      px      :     0.002620
      py      :     0.002620
      dz2     :     0.000085  d :     0.000808
      dxz     :     0.000212
      dyz     :     0.000212
      dx2y2   :     0.000085
      dxy     :     0.000212
  2 H s       :     1.022433  s :     1.022433
      pz      :     0.002620  p :     0.007860
      px      :     0.002620
      py      :     0.002620
      dz2     :     0.000085  d :     0.000808
      dxz     :     0.000212
      dyz     :     0.000212
      dx2y2   :     0.000085
      dxy     :     0.000212
  3 H s       :     1.022433  s :     1.022433
      pz      :     0.002620  p :     0.007860
      px      :     0.002620
      py      :     0.002620
      dz2     :     0.000085  d :     0.000808
      dxz     :     0.000212
      dyz     :     0.000212
      dx2y2   :     0.000085
      dxy     :     0.000212
  4 H s       :     1.022433  s :     1.022433
      pz      :     0.002620  p :     0.007860
      px      :     0.002620
      py      :     0.002620
      dz2     :     0.000085  d :     0.000808
      dxz     :     0.000212
      dyz     :     0.000212
      dx2y2   :     0.000085
      dxy     :     0.000212


                     *******************************
                     * LOEWDIN POPULATION ANALYSIS *
                     *******************************

----------------------
LOEWDIN ATOMIC CHARGES
----------------------
   0 Si:    0.651509
   1 H :   -0.162877
   2 H :   -0.162877
   3 H :   -0.162877
   4 H :   -0.162877

-------------------------------
LOEWDIN REDUCED ORBITAL CHARGES
-------------------------------
  0 Sis       :     4.662672  s :     4.662672
      pz      :     2.729784  p :     8.189353
      px      :     2.729784
      py      :     2.729784
      dz2     :     0.000000  d :     0.450716
      dxz     :     0.150239
      dyz     :     0.150239
      dx2y2   :     0.000000
      dxy     :     0.150239
      f0      :     0.010850  f :     0.045749
      f+1     :     0.004069
      f-1     :     0.004069
      f+2     :     0.000000
      f-2     :     0.013199
      f+3     :     0.006781
      f-3     :     0.006781
  1 H s       :     0.941541  s :     0.941541
      pz      :     0.072028  p :     0.216083
      px      :     0.072028
      py      :     0.072028
      dz2     :     0.000593  d :     0.005253
      dxz     :     0.001356
      dyz     :     0.001356
      dx2y2   :     0.000593
      dxy     :     0.001356
  2 H s       :     0.941541  s :     0.941541
      pz      :     0.072028  p :     0.216083
      px      :     0.072028
      py      :     0.072028
      dz2     :     0.000593  d :     0.005253
      dxz     :     0.001356
      dyz     :     0.001356
      dx2y2   :     0.000593
      dxy     :     0.001356
  3 H s       :     0.941541  s :     0.941541
      pz      :     0.072028  p :     0.216083
      px      :     0.072028
      py      :     0.072028
      dz2     :     0.000593  d :     0.005253
      dxz     :     0.001356
      dyz     :     0.001356
      dx2y2   :     0.000593
      dxy     :     0.001356
  4 H s       :     0.941541  s :     0.941541
      pz      :     0.072028  p :     0.216083
      px      :     0.072028
      py      :     0.072028
      dz2     :     0.000593  d :     0.005253
      dxz     :     0.001356
      dyz     :     0.001356
      dx2y2   :     0.000593
      dxy     :     0.001356


                      *****************************
                      * MAYER POPULATION ANALYSIS *
                      *****************************

  NA   - Mulliken gross atomic population
  ZA   - Total nuclear charge
  QA   - Mulliken gross atomic charge
  VA   - Mayer's total valence
  BVA  - Mayer's bonded valence
  FA   - Mayer's free valence

  ATOM       NA         ZA         QA         VA         BVA        FA
  0 Si    13.8756    14.0000     0.1244     3.9148     3.9148    -0.0000
  1 H      1.0311     1.0000    -0.0311     0.9853     0.9853    -0.0000
  2 H      1.0311     1.0000    -0.0311     0.9853     0.9853    -0.0000
  3 H      1.0311     1.0000    -0.0311     0.9853     0.9853    -0.0000
  4 H      1.0311     1.0000    -0.0311     0.9853     0.9853    -0.0000

  Mayer bond orders larger than 0.100000
B(  0-Si,  1-H ) :   0.9787 B(  0-Si,  2-H ) :   0.9787 B(  0-Si,  3-H ) :   0.9787 
B(  0-Si,  4-H ) :   0.9787 

-------
TIMINGS
-------

Total SCF time: 0 days 0 hours 0 min 1 sec 

Total time                  ....       1.861 sec
Sum of individual times     ....       1.634 sec  ( 87.8%)

Fock matrix formation       ....       1.352 sec  ( 72.6%)
  XC integration            ....       0.150 sec  ( 11.1% of F)
    Basis function eval.    ....       0.019 sec  ( 12.5% of XC)
    Density eval.           ....       0.026 sec  ( 17.1% of XC)
    XC-Functional eval.     ....       0.012 sec  (  8.2% of XC)
    XC-Potential eval.      ....       0.047 sec  ( 31.2% of XC)
Diagonalization             ....       0.007 sec  (  0.4%)
Density matrix formation    ....       0.002 sec  (  0.1%)
Population analysis         ....       0.003 sec  (  0.2%)
Initial guess               ....       0.114 sec  (  6.1%)
Orbital Transformation      ....       0.000 sec  (  0.0%)
Orbital Orthonormalization  ....       0.000 sec  (  0.0%)
DIIS solution               ....       0.002 sec  (  0.1%)
SOSCF solution              ....       0.004 sec  (  0.2%)
Grid generation             ....       0.150 sec  (  8.1%)

-------------------------   --------------------
FINAL SINGLE POINT ENERGY      -291.845617748517
-------------------------   --------------------


                            ***************************************
                            *     ORCA property calculations      *
                            ***************************************

                                    ---------------------
                                    Active property flags
                                    ---------------------
   (+) Dipole Moment


------------------------------------------------------------------------------
                       ORCA ELECTRIC PROPERTIES CALCULATION
------------------------------------------------------------------------------

Dipole Moment Calculation                       ... on
Quadrupole Moment Calculation                   ... off
Polarizability Calculation                      ... off
GBWName                                         ... 177_si.gbw
Electron density file                           ... 177_si.scfp
The origin for moment calculation is the CENTER OF MASS  = ( 0.000000,  0.000000  0.000000)

-------------
DIPOLE MOMENT
-------------
                                X             Y             Z
Electronic contribution:     -0.00000       0.00000      -0.00000
Nuclear contribution   :      0.00000       0.00000       0.00000
                        -----------------------------------------
Total Dipole Moment    :     -0.00000       0.00000      -0.00000
                        -----------------------------------------
Magnitude (a.u.)       :      0.00000
Magnitude (Debye)      :      0.00000



--------------------
Rotational spectrum 
--------------------
 
Rotational constants in cm-1:     2.790565     2.790565     2.790565 
Rotational constants in MHz : 83659.038574 83659.038574 83659.038574 

 Dipole components along the rotational axes: 
x,y,z [a.u.] :    -0.000000     0.000000    -0.000000 
x,y,z [Debye]:    -0.000000     0.000000    -0.000000 

 

Timings for individual modules:

Sum of individual times         ...        3.140 sec (=   0.052 min)
GTO integral calculation        ...        0.828 sec (=   0.014 min)  26.4 %
SCF iterations                  ...        2.312 sec (=   0.039 min)  73.6 %
                             ****ORCA TERMINATED NORMALLY****
TOTAL RUN TIME: 0 days 0 hours 0 minutes 3 seconds 733 msec
