
                                 *****************
                                 * O   R   C   A *
                                 *****************

           --- An Ab Initio, DFT and Semiempirical electronic structure package ---

                  #######################################################
                  #                        -***-                        #
                  #          Department of theory and spectroscopy      #
                  #               Directorship: Frank Neese             #
                  #        Max Planck Institute fuer Kohlenforschung    #
                  #                Kaiser Wilhelm Platz 1               #
                  #                 D-45470 Muelheim/Ruhr               #
                  #                      Germany                        #
                  #                                                     #
                  #                  All rights reserved                #
                  #                        -***-                        #
                  #######################################################


                         Program Version 4.2.0 -  RELEASE  -


 With contributions from (in alphabetic order):
   Daniel Aravena         : Magnetic Suceptibility
   Michael Atanasov       : Ab Initio Ligand Field Theory (pilot matlab implementation)
   Alexander A. Auer      : GIAO ZORA, VPT2
   Ute Becker             : Parallelization
   Giovanni Bistoni       : ED, misc. LED, open-shell LED, HFLED
   Martin Brehm           : Molecular dynamics
   Dmytro Bykov           : SCF Hessian
   Vijay G. Chilkuri      : MRCI spin determinant printing, contributions to CSF-ICE
   Dipayan Datta          : RHF DLPNO-CCSD density
   Achintya Kumar Dutta   : EOM-CC, STEOM-CC
   Dmitry Ganyushin       : Spin-Orbit,Spin-Spin,Magnetic field MRCI
   Miquel Garcia          : C-PCM Hessian, Gaussian charge scheme
   Yang Guo               : DLPNO-NEVPT2, CIM, IAO-localization
   Andreas Hansen         : Spin unrestricted coupled pair/coupled cluster methods
   Benjamin Helmich-Paris : CASSCF linear response (MC-RPA)
   Lee Huntington         : MR-EOM, pCC
   Robert Izsak           : Overlap fitted RIJCOSX, COSX-SCS-MP3, EOM
   Christian Kollmar      : KDIIS, OOCD, Brueckner-CCSD(T), CCSD density
   Simone Kossmann        : Meta GGA functionals, TD-DFT gradient, OOMP2, MP2 Hessian
   Martin Krupicka        : AUTO-CI
   Lucas Lang             : DCDCAS
   Dagmar Lenk            : GEPOL surface, SMD
   Dimitrios Liakos       : Extrapolation schemes; Compound Job, initial MDCI parallelization
   Dimitrios Manganas     : Further ROCIS development; embedding schemes
   Dimitrios Pantazis     : SARC Basis sets
   Taras Petrenko         : DFT Hessian,TD-DFT gradient, ASA, ECA, R-Raman, ABS, FL, XAS/XES, NRVS
   Peter Pinski           : DLPNO-MP2, DLPNO-MP2 Gradient
   Christoph Reimann      : Effective Core Potentials
   Marius Retegan         : Local ZFS, SOC
   Christoph Riplinger    : Optimizer, TS searches, QM/MM, DLPNO-CCSD(T), (RO)-DLPNO pert. Triples
   Tobias Risthaus        : Range-separated hybrids, TD-DFT gradient, RPA, STAB
   Michael Roemelt        : Original ROCIS implementation
   Masaaki Saitow         : Open-shell DLPNO-CCSD energy and density
   Barbara Sandhoefer     : DKH picture change effects
   Avijit Sen             : IP-ROCIS
   Kantharuban Sivalingam : CASSCF convergence, NEVPT2, FIC-MRCI
   Bernardo de Souza      : ESD, SOC TD-DFT
   Georgi Stoychev        : AutoAux, RI-MP2 NMR
   Willem Van den Heuvel  : Paramagnetic NMR
   Boris Wezisla          : Elementary symmetry handling
   Frank Wennmohs         : Technical directorship


 We gratefully acknowledge several colleagues who have allowed us to
 interface, adapt or use parts of their codes:
   Stefan Grimme, W. Hujo, H. Kruse,             : VdW corrections, initial TS optimization,
                  C. Bannwarth                     DFT functionals, gCP, sTDA/sTD-DF
   Ed Valeev, F. Pavosevic, A. Kumar             : LibInt (2-el integral package), F12 methods
   Garnet Chan, S. Sharma, J. Yang, R. Olivares  : DMRG
   Ulf Ekstrom                                   : XCFun DFT Library
   Mihaly Kallay                                 : mrcc  (arbitrary order and MRCC methods)
   Andreas Klamt, Michael Diedenhofen            : otool_cosmo (COSMO solvation model)
   Jiri Pittner, Ondrej Demel                    : Mk-CCSD
   Frank Weinhold                                : gennbo (NPA and NBO analysis)
   Christopher J. Cramer and Donald G. Truhlar   : smd solvation model
   Lars Goerigk                                  : TD-DFT with DH, B97 family of functionals
   V. Asgeirsson, H. Jonsson                     : NEB implementation
   FAccTs GmbH                                   : IRC, NEB, NEB-TS, Multilevel, MM, QM/MM, CI optimization
   S Lehtola, MJT Oliveira, MAL Marques          : LibXC Library


 Your calculation uses the libint2 library for the computation of 2-el integrals
 For citations please refer to: http://libint.valeyev.net

 Your ORCA version has been built with support for libXC version: 4.2.3
 For citations please refer to: https://tddft.org/programs/libxc/

 This ORCA versions uses:
   CBLAS   interface :  Fast vector & matrix operations
   LAPACKE interface :  Fast linear algebra routines
   SCALAPACK package :  Parallel linear algebra routines


Your calculation utilizes the DFT-NL dispersion correction.
Cite in your paper:
Vydrov, O. A.; Van Voorhis, T. J. Chem. Phys. 2010, 133, 244103
Hujo, W.; Grimme, S. J. Chem. Theory Comput. 2011, 7, 3866 
   

----- Orbital basis set information -----
Your calculation utilizes the basis: def2-TZVPPD
   F. Weigend and R. Ahlrichs, Phys. Chem. Chem. Phys. 7, 3297 (2005).
   D. Rappoport and F. Furche, J. Chem. Phys. 133 134105 (2010).

----- AuxJK basis set information -----
Your calculation utilizes the auxiliary basis: def2/JK
   H-Ba, Hf-Rn: F. Weigend, J. Comput. Chem. 29, 167 (2008).

================================================================================
                                        WARNINGS
                       Please study these warnings very carefully!
================================================================================


INFO   : the flag for use of LIBINT has been found!

================================================================================
                                       INPUT FILE
================================================================================
NAME = 178_p.in
|  1> #
|  2> # 178_p wB97M-V/Def2-TZVPPD
|  3> #
|  4> ! wb97m-v def2-tzvppd def2/jk grid4 nofinalgrid
|  5> 
|  6> *xyz 0 1
|  7> P          0.00000        0.00000        0.95949
|  8> P          0.00000        0.00000       -0.95949
|  9> *
| 10> 
| 11> %maxcore 5000
| 12> 
| 13> %pal
| 14> nprocs = 24
| 15> end
| 16> 
| 17> 
| 18>                          ****END OF INPUT****
================================================================================

                       ****************************
                       * Single Point Calculation *
                       ****************************

---------------------------------
CARTESIAN COORDINATES (ANGSTROEM)
---------------------------------
  P      0.000000    0.000000    0.959490
  P      0.000000    0.000000   -0.959490

----------------------------
CARTESIAN COORDINATES (A.U.)
----------------------------
  NO LB      ZA    FRAG     MASS         X           Y           Z
   0 P    15.0000    0    30.974    0.000000    0.000000    1.813173
   1 P    15.0000    0    30.974    0.000000    0.000000   -1.813173

--------------------------------
INTERNAL COORDINATES (ANGSTROEM)
--------------------------------
 P      0   0   0     0.000000000000     0.00000000     0.00000000
 P      1   0   0     1.918980000000     0.00000000     0.00000000

---------------------------
INTERNAL COORDINATES (A.U.)
---------------------------
 P      0   0   0     0.000000000000     0.00000000     0.00000000
 P      1   0   0     3.626346656472     0.00000000     0.00000000

---------------------
BASIS SET INFORMATION
---------------------
There are 1 groups of distinct atoms

 Group   1 Type P   : 15s9p4d1f contracted to 6s5p4d1f pattern {732111/51111/1111/1}

Atom   0P    basis set group =>   1
Atom   1P    basis set group =>   1
----------------------------------
AUXILIARY/JK BASIS SET INFORMATION
----------------------------------
There are 1 groups of distinct atoms

 Group   1 Type P   : 16s12p10d4f1g contracted to 13s11p9d4f1g pattern {4111111111111/21111111111/211111111/1111/1}

Atom   0P    basis set group =>   1
Atom   1P    basis set group =>   1


           ************************************************************
           *        Program running with 24 parallel MPI-processes    *
           *              working on a common directory               *
           ************************************************************
------------------------------------------------------------------------------
                           ORCA GTO INTEGRAL CALCULATION
------------------------------------------------------------------------------

                         BASIS SET STATISTICS AND STARTUP INFO

 # of primitive gaussian shells          ...   58
 # of primitive gaussian functions       ...  138
 # of contracted shells                  ...   32
 # of contracted basis functions         ...   96
 Highest angular momentum                ...    3
 Maximum contraction depth               ...    7
 Integral package used                   ... LIBINT
 Integral threshhold            Thresh   ...  1.000e-10
 Primitive cut-off              TCut     ...  1.000e-11


------------------------------ INTEGRAL EVALUATION ----------------------------


 * One electron integrals 
 Pre-screening matrix                    ... done
 Shell pair data                         ... done (   0.000 sec)



           ************************************************************
           *        Program running with 24 parallel MPI-processes    *
           *              working on a common directory               *
           ************************************************************
-------------------------------------------------------------------------------
                                 ORCA SCF
-------------------------------------------------------------------------------

------------
SCF SETTINGS
------------
Hamiltonian:
 Density Functional     Method          .... DFT(GTOs)
 Exchange Functional    Exchange        .... WB97M-V
 Correlation Functional Correlation     .... WB97M-V
 Gradients option       PostSCFGGA      .... off
 Hybrid DFT is turned on
   Fraction HF Exchange ScalHFX         ....  0.150000
   Scaling of DF-GGA-X  ScalDFX         ....  0.000000
   Scaling of DF-GGA-C  ScalDFC         ....  1.000000
   Scaling of DF-LDA-C  ScalLDAC        ....  1.000000
   Perturbative correction              ....  0.000000
   Density functional embedding theory  .... OFF
 Long-range corrected/Screened/Range-Separated Hybrid DFT is turned on
   Amount of maximum screened exact exchange              ....  0.850000
   Range separation parameter mu (erf(mu*r12)/r12)        ....  0.300000
   NL short-range parameter             ....  6.000000
   NL long-range parameter              ....  0.010000


General Settings:
 Integral files         IntName         .... 178_p
 Hartree-Fock type      HFTyp           .... RHF
 Total Charge           Charge          ....    0
 Multiplicity           Mult            ....    1
 Number of Electrons    NEL             ....   30
 Basis Dimension        Dim             ....   96
 Nuclear Repulsion      ENuc            ....     62.0459159905 Eh

Convergence Acceleration:
 DIIS                   CNVDIIS         .... on
   Start iteration      DIISMaxIt       ....    12
   Startup error        DIISStart       ....  0.200000
   # of expansion vecs  DIISMaxEq       ....     5
   Bias factor          DIISBfac        ....   1.050
   Max. coefficient     DIISMaxC        ....  10.000
 Newton-Raphson         CNVNR           .... off
 SOSCF                  CNVSOSCF        .... on
   Start iteration      SOSCFMaxIt      ....   150
   Startup grad/error   SOSCFStart      ....  0.003300
 Level Shifting         CNVShift        .... on
   Level shift para.    LevelShift      ....    0.2500
   Turn off err/grad.   ShiftErr        ....    0.0010
 Zerner damping         CNVZerner       .... off
 Static damping         CNVDamp         .... on
   Fraction old density DampFac         ....    0.7000
   Max. Damping (<1)    DampMax         ....    0.9800
   Min. Damping (>=0)   DampMin         ....    0.0000
   Turn off err/grad.   DampErr         ....    0.1000
 Fernandez-Rico         CNVRico         .... off

SCF Procedure:
 Maximum # iterations   MaxIter         ....   125
 SCF integral mode      SCFMode         .... Direct
   Integral package                     .... LIBINT
 Reset frequency        DirectResetFreq ....    20
 Integral Threshold     Thresh          ....  1.000e-10 Eh
 Primitive CutOff       TCut            ....  1.000e-11 Eh

Convergence Tolerance:
 Convergence Check Mode ConvCheckMode   .... Total+1el-Energy
 Convergence forced     ConvForced      .... 0
 Energy Change          TolE            ....  1.000e-06 Eh
 1-El. energy change                    ....  1.000e-03 Eh
 Orbital Gradient       TolG            ....  5.000e-05
 Orbital Rotation angle TolX            ....  5.000e-05
 DIIS Error             TolErr          ....  1.000e-06


Diagonalization of the overlap matrix:
Smallest eigenvalue                        ... 4.968e-04
Time for diagonalization                   ...    0.003 sec
Threshold for overlap eigenvalues          ... 1.000e-08
Number of eigenvalues below threshold      ... 0
Time for construction of square roots      ...    0.001 sec
Total time needed                          ...    0.004 sec

-------------------
DFT GRID GENERATION
-------------------

General Integration Accuracy     IntAcc      ...  4.670
Radial Grid Type                 RadialGrid  ... Gauss-Chebyshev
Angular Grid (max. acc.)         AngularGrid ... Lebedev-302
Angular grid pruning method      GridPruning ... 3 (G Style)
Weight generation scheme         WeightScheme... Becke
Basis function cutoff            BFCut       ...    1.0000e-10
Integration weight cutoff        WCut        ...    1.0000e-14
Grids for H and He will be reduced by one unit

# of grid points (after initial pruning)     ...  13692 (   0.0 sec)
# of grid points (after weights+screening)   ...  13664 (   0.0 sec)
nearest neighbour list constructed           ...    0.0 sec
Grid point re-assignment to atoms done       ...    0.0 sec
Grid point division into batches done        ...    0.1 sec
Reduced shell lists constructed in    0.1 sec

Total number of grid points                  ...    13664
Total number of batches                      ...      214
Average number of points per batch           ...       63
Average number of grid points per atom       ...     6832
Average number of shells per batch           ...     4.80 (15.00%)
Average number of basis functions per batch  ...    14.00 (14.58%)
Average number of large shells per batch     ...     3.70 (77.08%)
Average number of large basis fcns per batch ...    11.10 (79.29%)
Maximum spatial batch extension              ...  21.45, 21.51, 14.48 au
Average spatial batch extension              ...   0.73,  0.73,  0.51 au

Time for grid setup =    0.120 sec

------------------------------
INITIAL GUESS: MODEL POTENTIAL
------------------------------
Loading Hartree-Fock densities                     ... done
Calculating cut-offs                               ... done
Setting up the integral package                    ... done
Initializing the effective Hamiltonian             ... done
Starting the Coulomb interaction                   ... done (   0.0 sec)
Reading the grid                                   ... done
Mapping shells                                     ... done
Starting the XC term evaluation                    ... done (   0.0 sec)
  promolecular density results
     # of electrons  =     30.000013005
     EX              =    -44.964246895
     EC              =     -1.124082877
     EX+EC           =    -46.088329771
Transforming the Hamiltonian                       ... done (   0.0 sec)
Diagonalizing the Hamiltonian                      ... done (   0.0 sec)
Back transforming the eigenvectors                 ... done (   0.0 sec)
Now organizing SCF variables                       ... done
                      ------------------
                      INITIAL GUESS DONE (   0.2 sec)
                      ------------------
--------------
SCF ITERATIONS
--------------
ITER       Energy         Delta-E        Max-DP      RMS-DP      [F,P]     Damp
               ***  Starting incremental Fock matrix formation  ***
  0   -682.7736383147   0.000000000000 0.02640016  0.00070705  0.0762314 0.7000
  1   -682.7823763365  -0.008738021735 0.01986673  0.00058572  0.0506282 0.7000
                               ***Turning on DIIS***
  2   -682.7877001472  -0.005323810768 0.03733811  0.00132116  0.0310189 0.0000
  3   -682.7971481564  -0.009448009200 0.01722826  0.00041843  0.0180395 0.0000
                      *** Initiating the SOSCF procedure ***
                           *** Shutting down DIIS ***
                      *** Re-Reading the Fockian *** 
                      *** Removing any level shift *** 
ITER      Energy       Delta-E        Grad      Rot      Max-DP    RMS-DP
  4   -682.79797500  -0.0008268424  0.001426  0.001426  0.004493  0.000128
               *** Restarting incremental Fock matrix formation ***
  5   -682.79801624  -0.0000412371  0.000460  0.000844  0.001303  0.000046
  6   -682.79802112  -0.0000048865  0.000224  0.000398  0.000503  0.000023
  7   -682.79802169  -0.0000005653  0.000072  0.000042  0.000106  0.000003
                 **** Energy Check signals convergence ****
              ***Rediagonalizing the Fockian in SOSCF/NRSCF***

               *****************************************************
               *                     SUCCESS                       *
               *           SCF CONVERGED AFTER   8 CYCLES          *
               *****************************************************


Setting up the DFT-NL grid :

General Integration Accuracy     IntAcc      ...  4.340
Radial Grid Type                 RadialGrid  ... Gauss-Chebyshev
Angular Grid (max. acc.)         AngularGrid ... Lebedev-110
Angular grid pruning method      GridPruning ... 3 (G Style)
Weight generation scheme         WeightScheme... Becke
Basis function cutoff            BFCut       ...    1.0000e-10
Integration weight cutoff        WCut        ...    1.0000e-14
Grids for H and He will be reduced by one unit

# of grid points (after initial pruning)     ...   3612 (   0.0 sec)
# of grid points (after weights+screening)   ...   3588 (   0.0 sec)
nearest neighbour list constructed           ...    0.0 sec
Grid point re-assignment to atoms done       ...    0.0 sec
Grid point division into batches done        ...    0.0 sec
Reduced shell lists constructed in    0.0 sec

Total number of grid points                  ...     3588
Total number of batches                      ...       58
Average number of points per batch           ...       61
Average number of grid points per atom       ...     1794
Average number of shells per batch           ...    13.25 (41.41%)
Average number of basis functions per batch  ...    44.75 (46.61%)
Average number of large shells per batch     ...     9.50 (71.70%)
Average number of large basis fcns per batch ...    29.00 (64.80%)
Maximum spatial batch extension              ...  32.81, 25.05, 18.19 au
Average spatial batch extension              ...   1.15,  1.17,  0.81 au

Final grid set up in    0.0 sec

-------------------------------------------------------------------------------
                         DFT-NL dispersion correction                          
-------------------------------------------------------------------------------

SC Energy -682.798021715 
NL    Energy 0.125434883 
SC+NL Energy -682.672586831 
NL done in    0.0 sec
-------------------------------------------------------------------------------

----------------
TOTAL SCF ENERGY
----------------

Total Energy       :         -682.67258683 Eh          -18576.46550 eV

Components:
Nuclear Repulsion  :           62.04591599 Eh            1688.35521 eV
Electronic Energy  :         -744.71850282 Eh          -20264.82071 eV
One Electron Energy:        -1067.36616574 Eh          -29044.50996 eV
Two Electron Energy:          322.64766292 Eh            8779.68926 eV

Virial components:
Potential Energy   :        -1363.88944558 Eh          -37113.31862 eV
Kinetic Energy     :          681.21685875 Eh           18536.85312 eV
Virial Ratio       :            2.00213695


DFT components:
N(Alpha)           :       15.000004811303 electrons
N(Beta)            :       15.000004811303 electrons
N(Total)           :       30.000009622605 electrons
E(X)               :      -34.396448545224 Eh       
E(C)               :       -1.287327183465 Eh       
NL Energy, E(C,NL) :        0.125434883488 Eh       
E(XC)              :      -35.558340845201 Eh       
DFET-embed. en.    :        0.000000000000 Eh       

---------------
SCF CONVERGENCE
---------------

  Last Energy change         ...   -2.7166e-08  Tolerance :   1.0000e-06
  Last MAX-Density change    ...    2.7301e-05  Tolerance :   1.0000e-05
  Last RMS-Density change    ...    6.5615e-07  Tolerance :   1.0000e-06
  Last Orbital Gradient      ...    5.4570e-06  Tolerance :   5.0000e-05
  Last Orbital Rotation      ...    1.2027e-05  Tolerance :   5.0000e-05

             **** THE GBW FILE WAS UPDATED (178_p.gbw) ****
             **** DENSITY FILE WAS UPDATED (178_p.scfp) ****
             **** ENERGY FILE WAS UPDATED (178_p.en.tmp) ****
             **** THE GBW FILE WAS UPDATED (178_p.gbw) ****
             **** DENSITY FILE WAS UPDATED (178_p.scfp) ****
----------------
ORBITAL ENERGIES
----------------

  NO   OCC          E(Eh)            E(eV) 
   0   2.0000     -77.398264     -2106.1138 
   1   2.0000     -77.398241     -2106.1132 
   2   2.0000      -6.746302      -183.5762 
   3   2.0000      -6.745921      -183.5659 
   4   2.0000      -4.858427      -132.2045 
   5   2.0000      -4.858427      -132.2045 
   6   2.0000      -4.858279      -132.2005 
   7   2.0000      -4.858279      -132.2005 
   8   2.0000      -4.855201      -132.1167 
   9   2.0000      -4.853459      -132.0693 
  10   2.0000      -0.793720       -21.5982 
  11   2.0000      -0.571291       -15.5456 
  12   2.0000      -0.386028       -10.5044 
  13   2.0000      -0.368233       -10.0201 
  14   2.0000      -0.368233       -10.0201 
  15   0.0000      -0.025505        -0.6940 
  16   0.0000      -0.025505        -0.6940 
  17   0.0000       0.061043         1.6611 
  18   0.0000       0.076113         2.0711 
  19   0.0000       0.141596         3.8530 
  20   0.0000       0.141597         3.8530 
  21   0.0000       0.146406         3.9839 
  22   0.0000       0.166019         4.5176 
  23   0.0000       0.185083         5.0364 
  24   0.0000       0.185083         5.0364 
  25   0.0000       0.196452         5.3457 
  26   0.0000       0.196452         5.3457 
  27   0.0000       0.230282         6.2663 
  28   0.0000       0.230283         6.2663 
  29   0.0000       0.260201         7.0804 
  30   0.0000       0.301776         8.2117 
  31   0.0000       0.301776         8.2117 
  32   0.0000       0.377387        10.2692 
  33   0.0000       0.431034        11.7290 
  34   0.0000       0.431034        11.7290 
  35   0.0000       0.440735        11.9930 
  36   0.0000       0.440739        11.9931 
  37   0.0000       0.444084        12.0841 
  38   0.0000       0.507008        13.7964 
  39   0.0000       0.507008        13.7964 
  40   0.0000       0.534880        14.5548 
  41   0.0000       0.542527        14.7629 
  42   0.0000       0.542530        14.7630 
  43   0.0000       0.659132        17.9359 
  44   0.0000       0.659132        17.9359 
  45   0.0000       0.669265        18.2116 
  46   0.0000       0.788846        21.4656 
  47   0.0000       0.950664        25.8689 
  48   0.0000       1.238685        33.7063 
  49   0.0000       1.264846        34.4182 
  50   0.0000       1.264857        34.4185 
  51   0.0000       1.292144        35.1610 
  52   0.0000       1.292144        35.1610 
  53   0.0000       1.350918        36.7603 
  54   0.0000       1.350918        36.7603 
  55   0.0000       1.380058        37.5533 
  56   0.0000       1.380071        37.5537 
  57   0.0000       1.388593        37.7855 
  58   0.0000       1.388593        37.7855 
  59   0.0000       1.416528        38.5457 
  60   0.0000       1.416543        38.5461 
  61   0.0000       1.470896        40.0251 
  62   0.0000       1.470896        40.0251 
  63   0.0000       1.486438        40.4480 
  64   0.0000       1.518527        41.3212 
  65   0.0000       1.518527        41.3212 
  66   0.0000       1.561468        42.4897 
  67   0.0000       1.604650        43.6648 
  68   0.0000       1.604650        43.6648 
  69   0.0000       1.703088        46.3434 
  70   0.0000       1.703088        46.3434 
  71   0.0000       1.727701        47.0131 
  72   0.0000       1.727716        47.0135 
  73   0.0000       1.807020        49.1715 
  74   0.0000       2.216936        60.3259 
  75   0.0000       2.216936        60.3259 
  76   0.0000       2.296014        62.4777 
  77   0.0000       2.384873        64.8957 
  78   0.0000       5.724630       155.7751 
  79   0.0000       5.788707       157.5187 
  80   0.0000       5.788708       157.5188 
  81   0.0000       5.791827       157.6036 
  82   0.0000       5.791827       157.6036 
  83   0.0000       5.818732       158.3358 
  84   0.0000       5.818732       158.3358 
  85   0.0000       5.877184       159.9263 
  86   0.0000       5.877184       159.9263 
  87   0.0000       6.207392       168.9117 
  88   0.0000       7.328245       199.4117 
  89   0.0000       7.328245       199.4117 
  90   0.0000       7.512283       204.4196 
  91   0.0000       7.512283       204.4196 
  92   0.0000       7.593323       206.6248 
  93   0.0000       7.802844       212.3262 
  94   0.0000      13.355095       363.4106 
  95   0.0000      14.775765       402.0690 

                    ********************************
                    * MULLIKEN POPULATION ANALYSIS *
                    ********************************

-----------------------
MULLIKEN ATOMIC CHARGES
-----------------------
   0 P :    0.000001
   1 P :   -0.000001
Sum of atomic charges:   -0.0000000

--------------------------------
MULLIKEN REDUCED ORBITAL CHARGES
--------------------------------
  0 P s       :     5.920884  s :     5.920884
      pz      :     3.058288  p :     8.966596
      px      :     2.954154
      py      :     2.954154
      dz2     :     0.019106  d :     0.105263
      dxz     :     0.043078
      dyz     :     0.043078
      dx2y2   :     0.000000
      dxy     :     0.000000
      f0      :     0.001721  f :     0.007257
      f+1     :     0.002768
      f-1     :     0.002768
      f+2     :     0.000000
      f-2     :     0.000000
      f+3     :     0.000000
      f-3     :     0.000000
  1 P s       :     5.920886  s :     5.920886
      pz      :     3.058287  p :     8.966595
      px      :     2.954154
      py      :     2.954154
      dz2     :     0.019106  d :     0.105263
      dxz     :     0.043078
      dyz     :     0.043078
      dx2y2   :     0.000000
      dxy     :     0.000000
      f0      :     0.001721  f :     0.007257
      f+1     :     0.002768
      f-1     :     0.002768
      f+2     :     0.000000
      f-2     :     0.000000
      f+3     :     0.000000
      f-3     :     0.000000


                     *******************************
                     * LOEWDIN POPULATION ANALYSIS *
                     *******************************

----------------------
LOEWDIN ATOMIC CHARGES
----------------------
   0 P :    0.000000
   1 P :   -0.000000

-------------------------------
LOEWDIN REDUCED ORBITAL CHARGES
-------------------------------
  0 P s       :     5.491109  s :     5.491109
      pz      :     3.299850  p :     9.126453
      px      :     2.913301
      py      :     2.913301
      dz2     :     0.195512  d :     0.355702
      dxz     :     0.080095
      dyz     :     0.080095
      dx2y2   :     0.000000
      dxy     :     0.000000
      f0      :     0.013528  f :     0.026736
      f+1     :     0.006604
      f-1     :     0.006604
      f+2     :     0.000000
      f-2     :     0.000000
      f+3     :     0.000000
      f-3     :     0.000000
  1 P s       :     5.491109  s :     5.491109
      pz      :     3.299850  p :     9.126453
      px      :     2.913301
      py      :     2.913301
      dz2     :     0.195513  d :     0.355702
      dxz     :     0.080095
      dyz     :     0.080095
      dx2y2   :     0.000000
      dxy     :     0.000000
      f0      :     0.013528  f :     0.026736
      f+1     :     0.006604
      f-1     :     0.006604
      f+2     :     0.000000
      f-2     :     0.000000
      f+3     :     0.000000
      f-3     :     0.000000


                      *****************************
                      * MAYER POPULATION ANALYSIS *
                      *****************************

  NA   - Mulliken gross atomic population
  ZA   - Total nuclear charge
  QA   - Mulliken gross atomic charge
  VA   - Mayer's total valence
  BVA  - Mayer's bonded valence
  FA   - Mayer's free valence

  ATOM       NA         ZA         QA         VA         BVA        FA
  0 P     15.0000    15.0000     0.0000     2.8047     2.8047    -0.0000
  1 P     15.0000    15.0000    -0.0000     2.8047     2.8047    -0.0000

  Mayer bond orders larger than 0.100000
B(  0-P ,  1-P ) :   2.8047 

-------
TIMINGS
-------

Total SCF time: 0 days 0 hours 0 min 1 sec 

Total time                  ....       1.803 sec
Sum of individual times     ....       1.594 sec  ( 88.4%)

Fock matrix formation       ....       1.350 sec  ( 74.8%)
  XC integration            ....       0.148 sec  ( 10.9% of F)
    Basis function eval.    ....       0.010 sec  (  6.5% of XC)
    Density eval.           ....       0.013 sec  (  9.0% of XC)
    XC-Functional eval.     ....       0.008 sec  (  5.3% of XC)
    XC-Potential eval.      ....       0.024 sec  ( 16.4% of XC)
Diagonalization             ....       0.006 sec  (  0.3%)
Density matrix formation    ....       0.002 sec  (  0.1%)
Population analysis         ....       0.002 sec  (  0.1%)
Initial guess               ....       0.100 sec  (  5.5%)
Orbital Transformation      ....       0.000 sec  (  0.0%)
Orbital Orthonormalization  ....       0.000 sec  (  0.0%)
DIIS solution               ....       0.002 sec  (  0.1%)
SOSCF solution              ....       0.003 sec  (  0.1%)
Grid generation             ....       0.129 sec  (  7.2%)

-------------------------   --------------------
FINAL SINGLE POINT ENERGY      -682.672586831384
-------------------------   --------------------


                            ***************************************
                            *     ORCA property calculations      *
                            ***************************************

                                    ---------------------
                                    Active property flags
                                    ---------------------
   (+) Dipole Moment


------------------------------------------------------------------------------
                       ORCA ELECTRIC PROPERTIES CALCULATION
------------------------------------------------------------------------------

Dipole Moment Calculation                       ... on
Quadrupole Moment Calculation                   ... off
Polarizability Calculation                      ... off
GBWName                                         ... 178_p.gbw
Electron density file                           ... 178_p.scfp
The origin for moment calculation is the CENTER OF MASS  = ( 0.000000,  0.000000  0.000000)

-------------
DIPOLE MOMENT
-------------
                                X             Y             Z
Electronic contribution:      0.00000      -0.00000       0.00000
Nuclear contribution   :      0.00000       0.00000       0.00000
                        -----------------------------------------
Total Dipole Moment    :      0.00000      -0.00000       0.00000
                        -----------------------------------------
Magnitude (a.u.)       :      0.00000
Magnitude (Debye)      :      0.00000



--------------------
Rotational spectrum 
--------------------
 
Rotational constants in cm-1:     0.000000     0.295589     0.295589 
Rotational constants in MHz :     0.000000  8861.544214  8861.544214 

 Dipole components along the rotational axes: 
x,y,z [a.u.] :     0.000000    -0.000000     0.000000 
x,y,z [Debye]:     0.000000    -0.000000     0.000000 

 

Timings for individual modules:

Sum of individual times         ...        2.857 sec (=   0.048 min)
GTO integral calculation        ...        0.680 sec (=   0.011 min)  23.8 %
SCF iterations                  ...        2.178 sec (=   0.036 min)  76.2 %
                             ****ORCA TERMINATED NORMALLY****
TOTAL RUN TIME: 0 days 0 hours 0 minutes 3 seconds 284 msec
