
                                 *****************
                                 * O   R   C   A *
                                 *****************

           --- An Ab Initio, DFT and Semiempirical electronic structure package ---

                  #######################################################
                  #                        -***-                        #
                  #          Department of theory and spectroscopy      #
                  #               Directorship: Frank Neese             #
                  #        Max Planck Institute fuer Kohlenforschung    #
                  #                Kaiser Wilhelm Platz 1               #
                  #                 D-45470 Muelheim/Ruhr               #
                  #                      Germany                        #
                  #                                                     #
                  #                  All rights reserved                #
                  #                        -***-                        #
                  #######################################################


                         Program Version 4.2.0 -  RELEASE  -


 With contributions from (in alphabetic order):
   Daniel Aravena         : Magnetic Suceptibility
   Michael Atanasov       : Ab Initio Ligand Field Theory (pilot matlab implementation)
   Alexander A. Auer      : GIAO ZORA, VPT2
   Ute Becker             : Parallelization
   Giovanni Bistoni       : ED, misc. LED, open-shell LED, HFLED
   Martin Brehm           : Molecular dynamics
   Dmytro Bykov           : SCF Hessian
   Vijay G. Chilkuri      : MRCI spin determinant printing, contributions to CSF-ICE
   Dipayan Datta          : RHF DLPNO-CCSD density
   Achintya Kumar Dutta   : EOM-CC, STEOM-CC
   Dmitry Ganyushin       : Spin-Orbit,Spin-Spin,Magnetic field MRCI
   Miquel Garcia          : C-PCM Hessian, Gaussian charge scheme
   Yang Guo               : DLPNO-NEVPT2, CIM, IAO-localization
   Andreas Hansen         : Spin unrestricted coupled pair/coupled cluster methods
   Benjamin Helmich-Paris : CASSCF linear response (MC-RPA)
   Lee Huntington         : MR-EOM, pCC
   Robert Izsak           : Overlap fitted RIJCOSX, COSX-SCS-MP3, EOM
   Christian Kollmar      : KDIIS, OOCD, Brueckner-CCSD(T), CCSD density
   Simone Kossmann        : Meta GGA functionals, TD-DFT gradient, OOMP2, MP2 Hessian
   Martin Krupicka        : AUTO-CI
   Lucas Lang             : DCDCAS
   Dagmar Lenk            : GEPOL surface, SMD
   Dimitrios Liakos       : Extrapolation schemes; Compound Job, initial MDCI parallelization
   Dimitrios Manganas     : Further ROCIS development; embedding schemes
   Dimitrios Pantazis     : SARC Basis sets
   Taras Petrenko         : DFT Hessian,TD-DFT gradient, ASA, ECA, R-Raman, ABS, FL, XAS/XES, NRVS
   Peter Pinski           : DLPNO-MP2, DLPNO-MP2 Gradient
   Christoph Reimann      : Effective Core Potentials
   Marius Retegan         : Local ZFS, SOC
   Christoph Riplinger    : Optimizer, TS searches, QM/MM, DLPNO-CCSD(T), (RO)-DLPNO pert. Triples
   Tobias Risthaus        : Range-separated hybrids, TD-DFT gradient, RPA, STAB
   Michael Roemelt        : Original ROCIS implementation
   Masaaki Saitow         : Open-shell DLPNO-CCSD energy and density
   Barbara Sandhoefer     : DKH picture change effects
   Avijit Sen             : IP-ROCIS
   Kantharuban Sivalingam : CASSCF convergence, NEVPT2, FIC-MRCI
   Bernardo de Souza      : ESD, SOC TD-DFT
   Georgi Stoychev        : AutoAux, RI-MP2 NMR
   Willem Van den Heuvel  : Paramagnetic NMR
   Boris Wezisla          : Elementary symmetry handling
   Frank Wennmohs         : Technical directorship


 We gratefully acknowledge several colleagues who have allowed us to
 interface, adapt or use parts of their codes:
   Stefan Grimme, W. Hujo, H. Kruse,             : VdW corrections, initial TS optimization,
                  C. Bannwarth                     DFT functionals, gCP, sTDA/sTD-DF
   Ed Valeev, F. Pavosevic, A. Kumar             : LibInt (2-el integral package), F12 methods
   Garnet Chan, S. Sharma, J. Yang, R. Olivares  : DMRG
   Ulf Ekstrom                                   : XCFun DFT Library
   Mihaly Kallay                                 : mrcc  (arbitrary order and MRCC methods)
   Andreas Klamt, Michael Diedenhofen            : otool_cosmo (COSMO solvation model)
   Jiri Pittner, Ondrej Demel                    : Mk-CCSD
   Frank Weinhold                                : gennbo (NPA and NBO analysis)
   Christopher J. Cramer and Donald G. Truhlar   : smd solvation model
   Lars Goerigk                                  : TD-DFT with DH, B97 family of functionals
   V. Asgeirsson, H. Jonsson                     : NEB implementation
   FAccTs GmbH                                   : IRC, NEB, NEB-TS, Multilevel, MM, QM/MM, CI optimization
   S Lehtola, MJT Oliveira, MAL Marques          : LibXC Library


 Your calculation uses the libint2 library for the computation of 2-el integrals
 For citations please refer to: http://libint.valeyev.net

 Your ORCA version has been built with support for libXC version: 4.2.3
 For citations please refer to: https://tddft.org/programs/libxc/

 This ORCA versions uses:
   CBLAS   interface :  Fast vector & matrix operations
   LAPACKE interface :  Fast linear algebra routines
   SCALAPACK package :  Parallel linear algebra routines


Your calculation utilizes the DFT-NL dispersion correction.
Cite in your paper:
Vydrov, O. A.; Van Voorhis, T. J. Chem. Phys. 2010, 133, 244103
Hujo, W.; Grimme, S. J. Chem. Theory Comput. 2011, 7, 3866 
   

----- Orbital basis set information -----
Your calculation utilizes the basis: def2-TZVPPD
   F. Weigend and R. Ahlrichs, Phys. Chem. Chem. Phys. 7, 3297 (2005).
   D. Rappoport and F. Furche, J. Chem. Phys. 133 134105 (2010).

----- AuxJK basis set information -----
Your calculation utilizes the auxiliary basis: def2/JK
   H-Ba, Hf-Rn: F. Weigend, J. Comput. Chem. 29, 167 (2008).

================================================================================
                                        WARNINGS
                       Please study these warnings very carefully!
================================================================================


WARNING: your system is open-shell and RHF/RKS was chosen
  ===> : WILL SWITCH to UHF/UKS


INFO   : the flag for use of LIBINT has been found!

================================================================================
                                       INPUT FILE
================================================================================
NAME = 179_s.in
|  1> #
|  2> # 179_s wB97M-V/Def2-TZVPPD
|  3> #
|  4> ! wb97m-v def2-tzvppd def2/jk grid4 nofinalgrid
|  5> 
|  6> *xyz 0 3
|  7> S          0.00000        0.00000        0.96937
|  8> S          0.00000        0.00000       -0.96937
|  9> *
| 10> 
| 11> %maxcore 5000
| 12> 
| 13> %pal
| 14> nprocs = 24
| 15> end
| 16> 
| 17> 
| 18>                          ****END OF INPUT****
================================================================================

                       ****************************
                       * Single Point Calculation *
                       ****************************

---------------------------------
CARTESIAN COORDINATES (ANGSTROEM)
---------------------------------
  S      0.000000    0.000000    0.969370
  S      0.000000    0.000000   -0.969370

----------------------------
CARTESIAN COORDINATES (A.U.)
----------------------------
  NO LB      ZA    FRAG     MASS         X           Y           Z
   0 S    16.0000    0    32.060    0.000000    0.000000    1.831844
   1 S    16.0000    0    32.060    0.000000    0.000000   -1.831844

--------------------------------
INTERNAL COORDINATES (ANGSTROEM)
--------------------------------
 S      0   0   0     0.000000000000     0.00000000     0.00000000
 S      1   0   0     1.938740000000     0.00000000     0.00000000

---------------------------
INTERNAL COORDINATES (A.U.)
---------------------------
 S      0   0   0     0.000000000000     0.00000000     0.00000000
 S      1   0   0     3.663687644878     0.00000000     0.00000000

---------------------
BASIS SET INFORMATION
---------------------
There are 1 groups of distinct atoms

 Group   1 Type S   : 15s10p4d1f contracted to 6s6p4d1f pattern {732111/511111/1111/1}

Atom   0S    basis set group =>   1
Atom   1S    basis set group =>   1
----------------------------------
AUXILIARY/JK BASIS SET INFORMATION
----------------------------------
There are 1 groups of distinct atoms

 Group   1 Type S   : 16s12p10d4f1g contracted to 13s11p9d4f1g pattern {4111111111111/21111111111/211111111/1111/1}

Atom   0S    basis set group =>   1
Atom   1S    basis set group =>   1


           ************************************************************
           *        Program running with 24 parallel MPI-processes    *
           *              working on a common directory               *
           ************************************************************
------------------------------------------------------------------------------
                           ORCA GTO INTEGRAL CALCULATION
------------------------------------------------------------------------------

                         BASIS SET STATISTICS AND STARTUP INFO

 # of primitive gaussian shells          ...   60
 # of primitive gaussian functions       ...  144
 # of contracted shells                  ...   34
 # of contracted basis functions         ...  102
 Highest angular momentum                ...    3
 Maximum contraction depth               ...    7
 Integral package used                   ... LIBINT
 Integral threshhold            Thresh   ...  1.000e-10
 Primitive cut-off              TCut     ...  1.000e-11


------------------------------ INTEGRAL EVALUATION ----------------------------


 * One electron integrals 
 Pre-screening matrix                    ... done
 Shell pair data                         ... done (   0.000 sec)



           ************************************************************
           *        Program running with 24 parallel MPI-processes    *
           *              working on a common directory               *
           ************************************************************
-------------------------------------------------------------------------------
                                 ORCA SCF
-------------------------------------------------------------------------------

------------
SCF SETTINGS
------------
Hamiltonian:
 Density Functional     Method          .... DFT(GTOs)
 Exchange Functional    Exchange        .... WB97M-V
 Correlation Functional Correlation     .... WB97M-V
 Gradients option       PostSCFGGA      .... off
 Hybrid DFT is turned on
   Fraction HF Exchange ScalHFX         ....  0.150000
   Scaling of DF-GGA-X  ScalDFX         ....  0.000000
   Scaling of DF-GGA-C  ScalDFC         ....  1.000000
   Scaling of DF-LDA-C  ScalLDAC        ....  1.000000
   Perturbative correction              ....  0.000000
   Density functional embedding theory  .... OFF
 Long-range corrected/Screened/Range-Separated Hybrid DFT is turned on
   Amount of maximum screened exact exchange              ....  0.850000
   Range separation parameter mu (erf(mu*r12)/r12)        ....  0.300000
   NL short-range parameter             ....  6.000000
   NL long-range parameter              ....  0.010000


General Settings:
 Integral files         IntName         .... 179_s
 Hartree-Fock type      HFTyp           .... UHF
 Total Charge           Charge          ....    0
 Multiplicity           Mult            ....    3
 Number of Electrons    NEL             ....   32
 Basis Dimension        Dim             ....  102
 Nuclear Repulsion      ENuc            ....     69.8749524561 Eh

Convergence Acceleration:
 DIIS                   CNVDIIS         .... on
   Start iteration      DIISMaxIt       ....    12
   Startup error        DIISStart       ....  0.200000
   # of expansion vecs  DIISMaxEq       ....     5
   Bias factor          DIISBfac        ....   1.050
   Max. coefficient     DIISMaxC        ....  10.000
 Newton-Raphson         CNVNR           .... off
 SOSCF                  CNVSOSCF        .... off
 Level Shifting         CNVShift        .... on
   Level shift para.    LevelShift      ....    0.2500
   Turn off err/grad.   ShiftErr        ....    0.0010
 Zerner damping         CNVZerner       .... off
 Static damping         CNVDamp         .... on
   Fraction old density DampFac         ....    0.7000
   Max. Damping (<1)    DampMax         ....    0.9800
   Min. Damping (>=0)   DampMin         ....    0.0000
   Turn off err/grad.   DampErr         ....    0.1000
 Fernandez-Rico         CNVRico         .... off

SCF Procedure:
 Maximum # iterations   MaxIter         ....   125
 SCF integral mode      SCFMode         .... Direct
   Integral package                     .... LIBINT
 Reset frequency        DirectResetFreq ....    20
 Integral Threshold     Thresh          ....  1.000e-10 Eh
 Primitive CutOff       TCut            ....  1.000e-11 Eh

Convergence Tolerance:
 Convergence Check Mode ConvCheckMode   .... Total+1el-Energy
 Convergence forced     ConvForced      .... 0
 Energy Change          TolE            ....  1.000e-06 Eh
 1-El. energy change                    ....  1.000e-03 Eh
 DIIS Error             TolErr          ....  1.000e-06


Diagonalization of the overlap matrix:
Smallest eigenvalue                        ... 8.216e-04
Time for diagonalization                   ...    0.003 sec
Threshold for overlap eigenvalues          ... 1.000e-08
Number of eigenvalues below threshold      ... 0
Time for construction of square roots      ...    0.001 sec
Total time needed                          ...    0.004 sec

-------------------
DFT GRID GENERATION
-------------------

General Integration Accuracy     IntAcc      ...  4.670
Radial Grid Type                 RadialGrid  ... Gauss-Chebyshev
Angular Grid (max. acc.)         AngularGrid ... Lebedev-302
Angular grid pruning method      GridPruning ... 3 (G Style)
Weight generation scheme         WeightScheme... Becke
Basis function cutoff            BFCut       ...    1.0000e-10
Integration weight cutoff        WCut        ...    1.0000e-14
Grids for H and He will be reduced by one unit

# of grid points (after initial pruning)     ...  13692 (   0.0 sec)
# of grid points (after weights+screening)   ...  13666 (   0.0 sec)
nearest neighbour list constructed           ...    0.0 sec
Grid point re-assignment to atoms done       ...    0.0 sec
Grid point division into batches done        ...    0.1 sec
Reduced shell lists constructed in    0.1 sec

Total number of grid points                  ...    13666
Total number of batches                      ...      214
Average number of points per batch           ...       63
Average number of grid points per atom       ...     6833
Average number of shells per batch           ...     8.20 (24.12%)
Average number of basis functions per batch  ...    22.00 (21.57%)
Average number of large shells per batch     ...     6.40 (78.05%)
Average number of large basis fcns per batch ...    19.20 (87.27%)
Maximum spatial batch extension              ...  19.50, 19.55, 12.87 au
Average spatial batch extension              ...   0.66,  0.66,  0.47 au

Time for grid setup =    0.153 sec

------------------------------
INITIAL GUESS: MODEL POTENTIAL
------------------------------
Loading Hartree-Fock densities                     ... done
Calculating cut-offs                               ... done
Setting up the integral package                    ... done
Initializing the effective Hamiltonian             ... done
Starting the Coulomb interaction                   ... done (   0.0 sec)
Reading the grid                                   ... done
Mapping shells                                     ... done
Starting the XC term evaluation                    ... done (   0.0 sec)
  promolecular density results
     # of electrons  =     32.000016304
     EX              =    -49.735268983
     EC              =     -1.225861746
     EX+EC           =    -50.961130729
Transforming the Hamiltonian                       ... done (   0.0 sec)
Diagonalizing the Hamiltonian                      ... done (   0.0 sec)
Back transforming the eigenvectors                 ... done (   0.0 sec)
Now organizing SCF variables                       ... done
                      ------------------
                      INITIAL GUESS DONE (   0.3 sec)
                      ------------------
--------------
SCF ITERATIONS
--------------
ITER       Energy         Delta-E        Max-DP      RMS-DP      [F,P]     Damp
               ***  Starting incremental Fock matrix formation  ***
  0   -796.4716954271   0.000000000000 0.00754826  0.00023473  0.0510768 0.7000
  1   -796.4746899132  -0.002994486063 0.00591462  0.00020444  0.0359584 0.7000
                               ***Turning on DIIS***
  2   -796.4768234795  -0.002133566347 0.01267381  0.00050654  0.0252989 0.0000
  3   -796.4818708036  -0.005047324082 0.00562489  0.00012612  0.0069310 0.0000
  4   -796.4822311353  -0.000360331726 0.00126311  0.00003986  0.0018385 0.0000
  5   -796.4823166081  -0.000085472808 0.00129135  0.00003056  0.0004499 0.0000
  6   -796.4823704140  -0.000053805828 0.00032031  0.00000762  0.0001046 0.0000
  7   -796.4823786713  -0.000008257330 0.00003445  0.00000141  0.0000164 0.0000
                 **** Energy Check signals convergence ****

               *****************************************************
               *                     SUCCESS                       *
               *           SCF CONVERGED AFTER   8 CYCLES          *
               *****************************************************


Setting up the DFT-NL grid :

General Integration Accuracy     IntAcc      ...  4.340
Radial Grid Type                 RadialGrid  ... Gauss-Chebyshev
Angular Grid (max. acc.)         AngularGrid ... Lebedev-110
Angular grid pruning method      GridPruning ... 3 (G Style)
Weight generation scheme         WeightScheme... Becke
Basis function cutoff            BFCut       ...    1.0000e-10
Integration weight cutoff        WCut        ...    1.0000e-14
Grids for H and He will be reduced by one unit

# of grid points (after initial pruning)     ...   3612 (   0.0 sec)
# of grid points (after weights+screening)   ...   3588 (   0.0 sec)
nearest neighbour list constructed           ...    0.0 sec
Grid point re-assignment to atoms done       ...    0.0 sec
Grid point division into batches done        ...    0.0 sec
Reduced shell lists constructed in    0.0 sec

Total number of grid points                  ...     3588
Total number of batches                      ...       58
Average number of points per batch           ...       61
Average number of grid points per atom       ...     1794
Average number of shells per batch           ...    14.50 (42.65%)
Average number of basis functions per batch  ...    48.00 (47.06%)
Average number of large shells per batch     ...    11.00 (75.86%)
Average number of large basis fcns per batch ...    33.50 (69.79%)
Maximum spatial batch extension              ...  29.83, 22.78, 16.66 au
Average spatial batch extension              ...   1.05,  1.06,  0.74 au

Final grid set up in    0.0 sec

-------------------------------------------------------------------------------
                         DFT-NL dispersion correction                          
-------------------------------------------------------------------------------

SC Energy -796.482379571 
NL    Energy 0.133657243 
SC+NL Energy -796.348722328 
NL done in    0.0 sec
-------------------------------------------------------------------------------

----------------
TOTAL SCF ENERGY
----------------

Total Energy       :         -796.34872233 Eh          -21669.75040 eV

Components:
Nuclear Repulsion  :           69.87495246 Eh            1901.39412 eV
Electronic Energy  :         -866.22367478 Eh          -23571.14452 eV
One Electron Energy:        -1238.41555167 Eh          -33699.00039 eV
Two Electron Energy:          372.19187689 Eh           10127.85586 eV

Virial components:
Potential Energy   :        -1591.17867216 Eh          -43298.17291 eV
Kinetic Energy     :          794.82994983 Eh           21628.42250 eV
Virial Ratio       :            2.00191081


DFT components:
N(Alpha)           :       17.000005818592 electrons
N(Beta)            :       15.000005866214 electrons
N(Total)           :       32.000011684806 electrons
E(X)               :      -38.188270477093 Eh       
E(C)               :       -1.383191334146 Eh       
NL Energy, E(C,NL) :        0.133657242510 Eh       
E(XC)              :      -39.437804568729 Eh       
DFET-embed. en.    :        0.000000000000 Eh       

---------------
SCF CONVERGENCE
---------------

  Last Energy change         ...   -8.9957e-07  Tolerance :   1.0000e-06
  Last MAX-Density change    ...    7.7368e-06  Tolerance :   1.0000e-05
  Last RMS-Density change    ...    3.8369e-07  Tolerance :   1.0000e-06
  Last DIIS Error            ...    5.0798e-06  Tolerance :   1.0000e-06

             **** THE GBW FILE WAS UPDATED (179_s.gbw) ****
             **** DENSITY FILE WAS UPDATED (179_s.scfp) ****
             **** ENERGY FILE WAS UPDATED (179_s.en.tmp) ****
----------------------
UHF SPIN CONTAMINATION
----------------------

Warning: in a DFT calculation there is little theoretical justification to 
         calculate <S**2> as in Hartree-Fock theory. We will do it anyways
         but you should keep in mind that the values have only limited relevance

Expectation value of <S**2>     :     2.009784
Ideal value S*(S+1) for S=1.0   :     2.000000
Deviation                       :     0.009784

             **** THE GBW FILE WAS UPDATED (179_s.gbw) ****
             **** DENSITY FILE WAS UPDATED (179_s.scfp) ****
----------------
ORBITAL ENERGIES
----------------
                 SPIN UP ORBITALS
  NO   OCC          E(Eh)            E(eV) 
   0   1.0000     -89.250320     -2428.6247 
   1   1.0000     -89.250310     -2428.6244 
   2   1.0000      -8.174795      -222.4475 
   3   1.0000      -8.174697      -222.4448 
   4   1.0000      -6.084197      -165.5594 
   5   1.0000      -6.084197      -165.5594 
   6   1.0000      -6.084177      -165.5589 
   7   1.0000      -6.084177      -165.5589 
   8   1.0000      -6.082387      -165.5102 
   9   1.0000      -6.081844      -165.4954 
  10   1.0000      -0.953342       -25.9418 
  11   1.0000      -0.755184       -20.5496 
  12   1.0000      -0.496726       -13.5166 
  13   1.0000      -0.477293       -12.9878 
  14   1.0000      -0.477293       -12.9878 
  15   1.0000      -0.341852        -9.3023 
  16   1.0000      -0.341852        -9.3023 
  17   0.0000       0.019448         0.5292 
  18   0.0000       0.054162         1.4738 
  19   0.0000       0.054162         1.4738 
  20   0.0000       0.057822         1.5734 
  21   0.0000       0.076950         2.0939 
  22   0.0000       0.076950         2.0939 
  23   0.0000       0.077786         2.1167 
  24   0.0000       0.079684         2.1683 
  25   0.0000       0.156337         4.2542 
  26   0.0000       0.156338         4.2542 
  27   0.0000       0.197064         5.3624 
  28   0.0000       0.206122         5.6089 
  29   0.0000       0.206122         5.6089 
  30   0.0000       0.247661         6.7392 
  31   0.0000       0.250638         6.8202 
  32   0.0000       0.250640         6.8202 
  33   0.0000       0.287121         7.8130 
  34   0.0000       0.294626         8.0172 
  35   0.0000       0.294626         8.0172 
  36   0.0000       0.408778        11.1234 
  37   0.0000       0.408778        11.1234 
  38   0.0000       0.444679        12.1003 
  39   0.0000       0.470637        12.8067 
  40   0.0000       0.470637        12.8067 
  41   0.0000       0.493884        13.4393 
  42   0.0000       0.493888        13.4394 
  43   0.0000       0.572961        15.5911 
  44   0.0000       0.572966        15.5912 
  45   0.0000       0.575631        15.6637 
  46   0.0000       0.575631        15.6637 
  47   0.0000       0.585938        15.9442 
  48   0.0000       0.613636        16.6979 
  49   0.0000       0.703258        19.1366 
  50   0.0000       0.703258        19.1366 
  51   0.0000       0.759728        20.6732 
  52   0.0000       0.810855        22.0645 
  53   0.0000       1.173057        31.9205 
  54   0.0000       1.497269        40.7428 
  55   0.0000       1.497271        40.7428 
  56   0.0000       1.521105        41.3914 
  57   0.0000       1.552960        42.2582 
  58   0.0000       1.552960        42.2582 
  59   0.0000       1.605268        43.6816 
  60   0.0000       1.605297        43.6823 
  61   0.0000       1.625363        44.2284 
  62   0.0000       1.625400        44.2294 
  63   0.0000       1.639999        44.6267 
  64   0.0000       1.639999        44.6267 
  65   0.0000       1.644697        44.7545 
  66   0.0000       1.644697        44.7545 
  67   0.0000       1.674574        45.5675 
  68   0.0000       1.721426        46.8424 
  69   0.0000       1.721426        46.8424 
  70   0.0000       1.729105        47.0513 
  71   0.0000       1.729105        47.0513 
  72   0.0000       1.882390        51.2224 
  73   0.0000       1.882390        51.2224 
  74   0.0000       1.900922        51.7267 
  75   0.0000       1.961336        53.3707 
  76   0.0000       1.961348        53.3710 
  77   0.0000       1.980770        53.8995 
  78   0.0000       1.980770        53.8995 
  79   0.0000       2.047322        55.7105 
  80   0.0000       2.488451        67.7142 
  81   0.0000       2.534813        68.9758 
  82   0.0000       2.534813        68.9758 
  83   0.0000       3.092557        84.1528 
  84   0.0000       6.795513       184.9153 
  85   0.0000       6.795570       184.9169 
  86   0.0000       6.824400       185.7014 
  87   0.0000       6.824457       185.7029 
  88   0.0000       6.832316       185.9168 
  89   0.0000       6.832316       185.9168 
  90   0.0000       6.847089       186.3188 
  91   0.0000       6.847089       186.3188 
  92   0.0000       6.855779       186.5552 
  93   0.0000       7.035100       191.4348 
  94   0.0000       8.964371       243.9329 
  95   0.0000       8.964371       243.9329 
  96   0.0000       9.090413       247.3627 
  97   0.0000       9.090413       247.3627 
  98   0.0000       9.250232       251.7116 
  99   0.0000       9.373106       255.0552 
 100   0.0000      18.454605       502.1753 
 101   0.0000      19.104136       519.8500 

                 SPIN DOWN ORBITALS
  NO   OCC          E(Eh)            E(eV) 
   0   1.0000     -89.243266     -2428.4327 
   1   1.0000     -89.243258     -2428.4325 
   2   1.0000      -8.168704      -222.2817 
   3   1.0000      -8.168531      -222.2770 
   4   1.0000      -6.078262      -165.3979 
   5   1.0000      -6.077716      -165.3831 
   6   1.0000      -6.070283      -165.1808 
   7   1.0000      -6.070283      -165.1808 
   8   1.0000      -6.070246      -165.1798 
   9   1.0000      -6.070246      -165.1798 
  10   1.0000      -0.926544       -25.2125 
  11   1.0000      -0.699453       -19.0331 
  12   1.0000      -0.471585       -12.8325 
  13   1.0000      -0.420052       -11.4302 
  14   1.0000      -0.420052       -11.4302 
  15   0.0000      -0.073597        -2.0027 
  16   0.0000      -0.073597        -2.0027 
  17   0.0000       0.009115         0.2480 
  18   0.0000       0.043401         1.1810 
  19   0.0000       0.043401         1.1810 
  20   0.0000       0.043866         1.1937 
  21   0.0000       0.061360         1.6697 
  22   0.0000       0.061360         1.6697 
  23   0.0000       0.078334         2.1316 
  24   0.0000       0.088370         2.4047 
  25   0.0000       0.156196         4.2503 
  26   0.0000       0.156197         4.2503 
  27   0.0000       0.185800         5.0559 
  28   0.0000       0.215255         5.8574 
  29   0.0000       0.215255         5.8574 
  30   0.0000       0.238620         6.4932 
  31   0.0000       0.238627         6.4934 
  32   0.0000       0.247886         6.7453 
  33   0.0000       0.282397         7.6844 
  34   0.0000       0.282982         7.7003 
  35   0.0000       0.282982         7.7003 
  36   0.0000       0.415125        11.2961 
  37   0.0000       0.415125        11.2961 
  38   0.0000       0.441547        12.0151 
  39   0.0000       0.488275        13.2867 
  40   0.0000       0.488275        13.2867 
  41   0.0000       0.517138        14.0720 
  42   0.0000       0.517144        14.0722 
  43   0.0000       0.573996        15.6192 
  44   0.0000       0.573996        15.6192 
  45   0.0000       0.586385        15.9564 
  46   0.0000       0.607471        16.5301 
  47   0.0000       0.607475        16.5302 
  48   0.0000       0.626104        17.0372 
  49   0.0000       0.728724        19.8296 
  50   0.0000       0.728724        19.8296 
  51   0.0000       0.785773        21.3820 
  52   0.0000       0.828728        22.5508 
  53   0.0000       1.187910        32.3247 
  54   0.0000       1.535484        41.7827 
  55   0.0000       1.535488        41.7828 
  56   0.0000       1.537431        41.8356 
  57   0.0000       1.574974        42.8572 
  58   0.0000       1.574974        42.8572 
  59   0.0000       1.648855        44.8676 
  60   0.0000       1.648880        44.8683 
  61   0.0000       1.666481        45.3472 
  62   0.0000       1.666481        45.3472 
  63   0.0000       1.672058        45.4990 
  64   0.0000       1.672094        45.5000 
  65   0.0000       1.688830        45.9554 
  66   0.0000       1.696927        46.1757 
  67   0.0000       1.696927        46.1757 
  68   0.0000       1.746105        47.5139 
  69   0.0000       1.746105        47.5139 
  70   0.0000       1.784263        48.5523 
  71   0.0000       1.784263        48.5523 
  72   0.0000       1.916616        52.1538 
  73   0.0000       1.941535        52.8318 
  74   0.0000       1.941535        52.8318 
  75   0.0000       1.999821        54.4179 
  76   0.0000       1.999825        54.4180 
  77   0.0000       2.031883        55.2904 
  78   0.0000       2.031883        55.2904 
  79   0.0000       2.070798        56.3493 
  80   0.0000       2.504016        68.1377 
  81   0.0000       2.565196        69.8025 
  82   0.0000       2.565196        69.8025 
  83   0.0000       3.110924        84.6525 
  84   0.0000       6.808098       185.2578 
  85   0.0000       6.808140       185.2589 
  86   0.0000       6.837823       186.0666 
  87   0.0000       6.837823       186.0666 
  88   0.0000       6.837919       186.0692 
  89   0.0000       6.837963       186.0704 
  90   0.0000       6.853168       186.4842 
  91   0.0000       6.853168       186.4842 
  92   0.0000       6.860977       186.6967 
  93   0.0000       7.040023       191.5688 
  94   0.0000       8.987916       244.5736 
  95   0.0000       8.987916       244.5736 
  96   0.0000       9.115140       248.0356 
  97   0.0000       9.115140       248.0356 
  98   0.0000       9.255132       251.8449 
  99   0.0000       9.380020       255.2433 
 100   0.0000      18.461903       502.3739 
 101   0.0000      19.112278       520.0715 

                    ********************************
                    * MULLIKEN POPULATION ANALYSIS *
                    ********************************

--------------------------------------------
MULLIKEN ATOMIC CHARGES AND SPIN POPULATIONS
--------------------------------------------
   0 S :    0.000000    1.000000
   1 S :   -0.000000    1.000000
Sum of atomic charges         :   -0.0000000
Sum of atomic spin populations:    2.0000000

-----------------------------------------------------
MULLIKEN REDUCED ORBITAL CHARGES AND SPIN POPULATIONS
-----------------------------------------------------
CHARGE
  0 S s       :     5.925964  s :     5.925964
      pz      :     3.037844  p :     9.953056
      px      :     3.457606
      py      :     3.457606
      dz2     :     0.032745  d :     0.110919
      dxz     :     0.039087
      dyz     :     0.039087
      dx2y2   :     0.000000
      dxy     :     0.000000
      f0      :     0.003448  f :     0.010061
      f+1     :     0.003307
      f-1     :     0.003307
      f+2     :     0.000000
      f-2     :     0.000000
      f+3     :     0.000000
      f-3     :     0.000000
  1 S s       :     5.925964  s :     5.925964
      pz      :     3.037843  p :     9.953056
      px      :     3.457606
      py      :     3.457606
      dz2     :     0.032745  d :     0.110919
      dxz     :     0.039087
      dyz     :     0.039087
      dx2y2   :     0.000000
      dxy     :     0.000000
      f0      :     0.003448  f :     0.010061
      f+1     :     0.003307
      f-1     :     0.003307
      f+2     :     0.000000
      f-2     :     0.000000
      f+3     :     0.000000
      f-3     :     0.000000

SPIN
  0 S s       :     0.004342  s :     0.004342
      pz      :    -0.004405  p :     1.001327
      px      :     0.502866
      py      :     0.502866
      dz2     :     0.000682  d :    -0.004957
      dxz     :    -0.002819
      dyz     :    -0.002819
      dx2y2   :     0.000000
      dxy     :     0.000000
      f0      :    -0.000619  f :    -0.000712
      f+1     :    -0.000046
      f-1     :    -0.000046
      f+2     :     0.000000
      f-2     :    -0.000000
      f+3     :     0.000000
      f-3     :     0.000000
  1 S s       :     0.004342  s :     0.004342
      pz      :    -0.004405  p :     1.001327
      px      :     0.502866
      py      :     0.502866
      dz2     :     0.000682  d :    -0.004957
      dxz     :    -0.002819
      dyz     :    -0.002819
      dx2y2   :     0.000000
      dxy     :     0.000000
      f0      :    -0.000619  f :    -0.000712
      f+1     :    -0.000046
      f-1     :    -0.000046
      f+2     :    -0.000000
      f-2     :    -0.000000
      f+3     :     0.000000
      f-3     :     0.000000


                     *******************************
                     * LOEWDIN POPULATION ANALYSIS *
                     *******************************

-------------------------------------------
LOEWDIN ATOMIC CHARGES AND SPIN POPULATIONS
-------------------------------------------
   0 S :    0.000000    1.000000
   1 S :   -0.000000    1.000000

----------------------------------------------------
LOEWDIN REDUCED ORBITAL CHARGES AND SPIN POPULATIONS
----------------------------------------------------
CHARGE
  0 S s       :     5.568837  s :     5.568837
      pz      :     3.224312  p :     9.950390
      px      :     3.363039
      py      :     3.363039
      dz2     :     0.194267  d :     0.451109
      dxz     :     0.128421
      dyz     :     0.128421
      dx2y2   :     0.000000
      dxy     :     0.000000
      f0      :     0.012584  f :     0.029663
      f+1     :     0.008540
      f-1     :     0.008540
      f+2     :     0.000000
      f-2     :     0.000000
      f+3     :     0.000000
      f-3     :     0.000000
  1 S s       :     5.568837  s :     5.568837
      pz      :     3.224312  p :     9.950390
      px      :     3.363039
      py      :     3.363039
      dz2     :     0.194267  d :     0.451109
      dxz     :     0.128421
      dyz     :     0.128421
      dx2y2   :     0.000000
      dxy     :     0.000000
      f0      :     0.012584  f :     0.029663
      f+1     :     0.008540
      f-1     :     0.008540
      f+2     :     0.000000
      f-2     :     0.000000
      f+3     :     0.000000
      f-3     :     0.000000

SPIN
  0 S s       :     0.001275  s :     0.001275
      pz      :    -0.002884  p :     0.880003
      px      :     0.441443
      py      :     0.441443
      dz2     :     0.002223  d :     0.113539
      dxz     :     0.055658
      dyz     :     0.055658
      dx2y2   :     0.000000
      dxy     :     0.000000
      f0      :    -0.000614  f :     0.005183
      f+1     :     0.002899
      f-1     :     0.002899
      f+2     :     0.000000
      f-2     :    -0.000000
      f+3     :     0.000000
      f-3     :     0.000000
  1 S s       :     0.001275  s :     0.001275
      pz      :    -0.002884  p :     0.880003
      px      :     0.441443
      py      :     0.441443
      dz2     :     0.002223  d :     0.113539
      dxz     :     0.055658
      dyz     :     0.055658
      dx2y2   :     0.000000
      dxy     :     0.000000
      f0      :    -0.000614  f :     0.005183
      f+1     :     0.002899
      f-1     :     0.002899
      f+2     :    -0.000000
      f-2     :    -0.000000
      f+3     :     0.000000
      f-3     :     0.000000


                      *****************************
                      * MAYER POPULATION ANALYSIS *
                      *****************************

  NA   - Mulliken gross atomic population
  ZA   - Total nuclear charge
  QA   - Mulliken gross atomic charge
  VA   - Mayer's total valence
  BVA  - Mayer's bonded valence
  FA   - Mayer's free valence

  ATOM       NA         ZA         QA         VA         BVA        FA
  0 S     16.0000    16.0000     0.0000     2.5573     1.9874     0.5698
  1 S     16.0000    16.0000    -0.0000     2.5573     1.9874     0.5698

  Mayer bond orders larger than 0.100000
B(  0-S ,  1-S ) :   1.9874 

-------
TIMINGS
-------

Total SCF time: 0 days 0 hours 0 min 2 sec 

Total time                  ....       2.012 sec
Sum of individual times     ....       1.778 sec  ( 88.4%)

Fock matrix formation       ....       1.454 sec  ( 72.3%)
  XC integration            ....       0.151 sec  ( 10.4% of F)
    Basis function eval.    ....       0.009 sec  (  6.1% of XC)
    Density eval.           ....       0.022 sec  ( 14.5% of XC)
    XC-Functional eval.     ....       0.008 sec  (  5.6% of XC)
    XC-Potential eval.      ....       0.051 sec  ( 33.9% of XC)
Diagonalization             ....       0.024 sec  (  1.2%)
Density matrix formation    ....       0.005 sec  (  0.2%)
Population analysis         ....       0.005 sec  (  0.2%)
Initial guess               ....       0.121 sec  (  6.0%)
Orbital Transformation      ....       0.000 sec  (  0.0%)
Orbital Orthonormalization  ....       0.000 sec  (  0.0%)
DIIS solution               ....       0.008 sec  (  0.4%)
Grid generation             ....       0.162 sec  (  8.1%)

-------------------------   --------------------
FINAL SINGLE POINT ENERGY      -796.348722328340
-------------------------   --------------------


                            ***************************************
                            *     ORCA property calculations      *
                            ***************************************

                                    ---------------------
                                    Active property flags
                                    ---------------------
   (+) Dipole Moment


------------------------------------------------------------------------------
                       ORCA ELECTRIC PROPERTIES CALCULATION
------------------------------------------------------------------------------

Dipole Moment Calculation                       ... on
Quadrupole Moment Calculation                   ... off
Polarizability Calculation                      ... off
GBWName                                         ... 179_s.gbw
Electron density file                           ... 179_s.scfp
The origin for moment calculation is the CENTER OF MASS  = ( 0.000000,  0.000000  0.000000)

-------------
DIPOLE MOMENT
-------------
                                X             Y             Z
Electronic contribution:      0.00000      -0.00000       0.00000
Nuclear contribution   :      0.00000       0.00000       0.00000
                        -----------------------------------------
Total Dipole Moment    :      0.00000      -0.00000       0.00000
                        -----------------------------------------
Magnitude (a.u.)       :      0.00000
Magnitude (Debye)      :      0.00000



--------------------
Rotational spectrum 
--------------------
 
Rotational constants in cm-1:     0.000000     0.279785     0.279785 
Rotational constants in MHz :     0.000000  8387.739618  8387.739618 

 Dipole components along the rotational axes: 
x,y,z [a.u.] :     0.000000    -0.000000     0.000000 
x,y,z [Debye]:     0.000000    -0.000000     0.000000 

 

Timings for individual modules:

Sum of individual times         ...        3.294 sec (=   0.055 min)
GTO integral calculation        ...        0.836 sec (=   0.014 min)  25.4 %
SCF iterations                  ...        2.458 sec (=   0.041 min)  74.6 %
                             ****ORCA TERMINATED NORMALLY****
TOTAL RUN TIME: 0 days 0 hours 0 minutes 3 seconds 894 msec
