
                                 *****************
                                 * O   R   C   A *
                                 *****************

           --- An Ab Initio, DFT and Semiempirical electronic structure package ---

                  #######################################################
                  #                        -***-                        #
                  #          Department of theory and spectroscopy      #
                  #               Directorship: Frank Neese             #
                  #        Max Planck Institute fuer Kohlenforschung    #
                  #                Kaiser Wilhelm Platz 1               #
                  #                 D-45470 Muelheim/Ruhr               #
                  #                      Germany                        #
                  #                                                     #
                  #                  All rights reserved                #
                  #                        -***-                        #
                  #######################################################


                         Program Version 4.2.0 -  RELEASE  -


 With contributions from (in alphabetic order):
   Daniel Aravena         : Magnetic Suceptibility
   Michael Atanasov       : Ab Initio Ligand Field Theory (pilot matlab implementation)
   Alexander A. Auer      : GIAO ZORA, VPT2
   Ute Becker             : Parallelization
   Giovanni Bistoni       : ED, misc. LED, open-shell LED, HFLED
   Martin Brehm           : Molecular dynamics
   Dmytro Bykov           : SCF Hessian
   Vijay G. Chilkuri      : MRCI spin determinant printing, contributions to CSF-ICE
   Dipayan Datta          : RHF DLPNO-CCSD density
   Achintya Kumar Dutta   : EOM-CC, STEOM-CC
   Dmitry Ganyushin       : Spin-Orbit,Spin-Spin,Magnetic field MRCI
   Miquel Garcia          : C-PCM Hessian, Gaussian charge scheme
   Yang Guo               : DLPNO-NEVPT2, CIM, IAO-localization
   Andreas Hansen         : Spin unrestricted coupled pair/coupled cluster methods
   Benjamin Helmich-Paris : CASSCF linear response (MC-RPA)
   Lee Huntington         : MR-EOM, pCC
   Robert Izsak           : Overlap fitted RIJCOSX, COSX-SCS-MP3, EOM
   Christian Kollmar      : KDIIS, OOCD, Brueckner-CCSD(T), CCSD density
   Simone Kossmann        : Meta GGA functionals, TD-DFT gradient, OOMP2, MP2 Hessian
   Martin Krupicka        : AUTO-CI
   Lucas Lang             : DCDCAS
   Dagmar Lenk            : GEPOL surface, SMD
   Dimitrios Liakos       : Extrapolation schemes; Compound Job, initial MDCI parallelization
   Dimitrios Manganas     : Further ROCIS development; embedding schemes
   Dimitrios Pantazis     : SARC Basis sets
   Taras Petrenko         : DFT Hessian,TD-DFT gradient, ASA, ECA, R-Raman, ABS, FL, XAS/XES, NRVS
   Peter Pinski           : DLPNO-MP2, DLPNO-MP2 Gradient
   Christoph Reimann      : Effective Core Potentials
   Marius Retegan         : Local ZFS, SOC
   Christoph Riplinger    : Optimizer, TS searches, QM/MM, DLPNO-CCSD(T), (RO)-DLPNO pert. Triples
   Tobias Risthaus        : Range-separated hybrids, TD-DFT gradient, RPA, STAB
   Michael Roemelt        : Original ROCIS implementation
   Masaaki Saitow         : Open-shell DLPNO-CCSD energy and density
   Barbara Sandhoefer     : DKH picture change effects
   Avijit Sen             : IP-ROCIS
   Kantharuban Sivalingam : CASSCF convergence, NEVPT2, FIC-MRCI
   Bernardo de Souza      : ESD, SOC TD-DFT
   Georgi Stoychev        : AutoAux, RI-MP2 NMR
   Willem Van den Heuvel  : Paramagnetic NMR
   Boris Wezisla          : Elementary symmetry handling
   Frank Wennmohs         : Technical directorship


 We gratefully acknowledge several colleagues who have allowed us to
 interface, adapt or use parts of their codes:
   Stefan Grimme, W. Hujo, H. Kruse,             : VdW corrections, initial TS optimization,
                  C. Bannwarth                     DFT functionals, gCP, sTDA/sTD-DF
   Ed Valeev, F. Pavosevic, A. Kumar             : LibInt (2-el integral package), F12 methods
   Garnet Chan, S. Sharma, J. Yang, R. Olivares  : DMRG
   Ulf Ekstrom                                   : XCFun DFT Library
   Mihaly Kallay                                 : mrcc  (arbitrary order and MRCC methods)
   Andreas Klamt, Michael Diedenhofen            : otool_cosmo (COSMO solvation model)
   Jiri Pittner, Ondrej Demel                    : Mk-CCSD
   Frank Weinhold                                : gennbo (NPA and NBO analysis)
   Christopher J. Cramer and Donald G. Truhlar   : smd solvation model
   Lars Goerigk                                  : TD-DFT with DH, B97 family of functionals
   V. Asgeirsson, H. Jonsson                     : NEB implementation
   FAccTs GmbH                                   : IRC, NEB, NEB-TS, Multilevel, MM, QM/MM, CI optimization
   S Lehtola, MJT Oliveira, MAL Marques          : LibXC Library


 Your calculation uses the libint2 library for the computation of 2-el integrals
 For citations please refer to: http://libint.valeyev.net

 Your ORCA version has been built with support for libXC version: 4.2.3
 For citations please refer to: https://tddft.org/programs/libxc/

 This ORCA versions uses:
   CBLAS   interface :  Fast vector & matrix operations
   LAPACKE interface :  Fast linear algebra routines
   SCALAPACK package :  Parallel linear algebra routines


Your calculation utilizes the DFT-NL dispersion correction.
Cite in your paper:
Vydrov, O. A.; Van Voorhis, T. J. Chem. Phys. 2010, 133, 244103
Hujo, W.; Grimme, S. J. Chem. Theory Comput. 2011, 7, 3866 
   

----- Orbital basis set information -----
Your calculation utilizes the basis: def2-TZVPPD
   F. Weigend and R. Ahlrichs, Phys. Chem. Chem. Phys. 7, 3297 (2005).
   D. Rappoport and F. Furche, J. Chem. Phys. 133 134105 (2010).

----- AuxJK basis set information -----
Your calculation utilizes the auxiliary basis: def2/JK
   H-Ba, Hf-Rn: F. Weigend, J. Comput. Chem. 29, 167 (2008).

================================================================================
                                        WARNINGS
                       Please study these warnings very carefully!
================================================================================


INFO   : the flag for use of LIBINT has been found!

================================================================================
                                       INPUT FILE
================================================================================
NAME = 180_cl.in
|  1> #
|  2> # 180_cl wB97M-V/Def2-TZVPPD
|  3> #
|  4> ! wb97m-v def2-tzvppd def2/jk grid4 nofinalgrid
|  5> 
|  6> *xyz 0 1
|  7> Cl         0.00000        0.00000        1.02399
|  8> Cl         0.00000        0.00000       -1.02399
|  9> *
| 10> 
| 11> %maxcore 5000
| 12> 
| 13> %pal
| 14> nprocs = 24
| 15> end
| 16> 
| 17> 
| 18>                          ****END OF INPUT****
================================================================================

                       ****************************
                       * Single Point Calculation *
                       ****************************

---------------------------------
CARTESIAN COORDINATES (ANGSTROEM)
---------------------------------
  Cl     0.000000    0.000000    1.023990
  Cl     0.000000    0.000000   -1.023990

----------------------------
CARTESIAN COORDINATES (A.U.)
----------------------------
  NO LB      ZA    FRAG     MASS         X           Y           Z
   0 Cl   17.0000    0    35.453    0.000000    0.000000    1.935061
   1 Cl   17.0000    0    35.453    0.000000    0.000000   -1.935061

--------------------------------
INTERNAL COORDINATES (ANGSTROEM)
--------------------------------
 Cl     0   0   0     0.000000000000     0.00000000     0.00000000
 Cl     1   0   0     2.047980000000     0.00000000     0.00000000

---------------------------
INTERNAL COORDINATES (A.U.)
---------------------------
 Cl     0   0   0     0.000000000000     0.00000000     0.00000000
 Cl     1   0   0     3.870121327748     0.00000000     0.00000000

---------------------
BASIS SET INFORMATION
---------------------
There are 1 groups of distinct atoms

 Group   1 Type Cl  : 15s10p4d1f contracted to 6s6p4d1f pattern {732111/511111/1111/1}

Atom   0Cl   basis set group =>   1
Atom   1Cl   basis set group =>   1
----------------------------------
AUXILIARY/JK BASIS SET INFORMATION
----------------------------------
There are 1 groups of distinct atoms

 Group   1 Type Cl  : 16s12p10d4f1g contracted to 13s11p9d4f1g pattern {4111111111111/21111111111/211111111/1111/1}

Atom   0Cl   basis set group =>   1
Atom   1Cl   basis set group =>   1


           ************************************************************
           *        Program running with 24 parallel MPI-processes    *
           *              working on a common directory               *
           ************************************************************
------------------------------------------------------------------------------
                           ORCA GTO INTEGRAL CALCULATION
------------------------------------------------------------------------------

                         BASIS SET STATISTICS AND STARTUP INFO

 # of primitive gaussian shells          ...   60
 # of primitive gaussian functions       ...  144
 # of contracted shells                  ...   34
 # of contracted basis functions         ...  102
 Highest angular momentum                ...    3
 Maximum contraction depth               ...    7
 Integral package used                   ... LIBINT
 Integral threshhold            Thresh   ...  1.000e-10
 Primitive cut-off              TCut     ...  1.000e-11


------------------------------ INTEGRAL EVALUATION ----------------------------


 * One electron integrals 
 Pre-screening matrix                    ... done
 Shell pair data                         ... done (   0.000 sec)



           ************************************************************
           *        Program running with 24 parallel MPI-processes    *
           *              working on a common directory               *
           ************************************************************
-------------------------------------------------------------------------------
                                 ORCA SCF
-------------------------------------------------------------------------------

------------
SCF SETTINGS
------------
Hamiltonian:
 Density Functional     Method          .... DFT(GTOs)
 Exchange Functional    Exchange        .... WB97M-V
 Correlation Functional Correlation     .... WB97M-V
 Gradients option       PostSCFGGA      .... off
 Hybrid DFT is turned on
   Fraction HF Exchange ScalHFX         ....  0.150000
   Scaling of DF-GGA-X  ScalDFX         ....  0.000000
   Scaling of DF-GGA-C  ScalDFC         ....  1.000000
   Scaling of DF-LDA-C  ScalLDAC        ....  1.000000
   Perturbative correction              ....  0.000000
   Density functional embedding theory  .... OFF
 Long-range corrected/Screened/Range-Separated Hybrid DFT is turned on
   Amount of maximum screened exact exchange              ....  0.850000
   Range separation parameter mu (erf(mu*r12)/r12)        ....  0.300000
   NL short-range parameter             ....  6.000000
   NL long-range parameter              ....  0.010000


General Settings:
 Integral files         IntName         .... 180_cl
 Hartree-Fock type      HFTyp           .... RHF
 Total Charge           Charge          ....    0
 Multiplicity           Mult            ....    1
 Number of Electrons    NEL             ....   34
 Basis Dimension        Dim             ....  102
 Nuclear Repulsion      ENuc            ....     74.6746614707 Eh

Convergence Acceleration:
 DIIS                   CNVDIIS         .... on
   Start iteration      DIISMaxIt       ....    12
   Startup error        DIISStart       ....  0.200000
   # of expansion vecs  DIISMaxEq       ....     5
   Bias factor          DIISBfac        ....   1.050
   Max. coefficient     DIISMaxC        ....  10.000
 Newton-Raphson         CNVNR           .... off
 SOSCF                  CNVSOSCF        .... on
   Start iteration      SOSCFMaxIt      ....   150
   Startup grad/error   SOSCFStart      ....  0.003300
 Level Shifting         CNVShift        .... on
   Level shift para.    LevelShift      ....    0.2500
   Turn off err/grad.   ShiftErr        ....    0.0010
 Zerner damping         CNVZerner       .... off
 Static damping         CNVDamp         .... on
   Fraction old density DampFac         ....    0.7000
   Max. Damping (<1)    DampMax         ....    0.9800
   Min. Damping (>=0)   DampMin         ....    0.0000
   Turn off err/grad.   DampErr         ....    0.1000
 Fernandez-Rico         CNVRico         .... off

SCF Procedure:
 Maximum # iterations   MaxIter         ....   125
 SCF integral mode      SCFMode         .... Direct
   Integral package                     .... LIBINT
 Reset frequency        DirectResetFreq ....    20
 Integral Threshold     Thresh          ....  1.000e-10 Eh
 Primitive CutOff       TCut            ....  1.000e-11 Eh

Convergence Tolerance:
 Convergence Check Mode ConvCheckMode   .... Total+1el-Energy
 Convergence forced     ConvForced      .... 0
 Energy Change          TolE            ....  1.000e-06 Eh
 1-El. energy change                    ....  1.000e-03 Eh
 Orbital Gradient       TolG            ....  5.000e-05
 Orbital Rotation angle TolX            ....  5.000e-05
 DIIS Error             TolErr          ....  1.000e-06


Diagonalization of the overlap matrix:
Smallest eigenvalue                        ... 2.001e-03
Time for diagonalization                   ...    0.003 sec
Threshold for overlap eigenvalues          ... 1.000e-08
Number of eigenvalues below threshold      ... 0
Time for construction of square roots      ...    0.001 sec
Total time needed                          ...    0.005 sec

-------------------
DFT GRID GENERATION
-------------------

General Integration Accuracy     IntAcc      ...  4.670
Radial Grid Type                 RadialGrid  ... Gauss-Chebyshev
Angular Grid (max. acc.)         AngularGrid ... Lebedev-302
Angular grid pruning method      GridPruning ... 3 (G Style)
Weight generation scheme         WeightScheme... Becke
Basis function cutoff            BFCut       ...    1.0000e-10
Integration weight cutoff        WCut        ...    1.0000e-14
Grids for H and He will be reduced by one unit

# of grid points (after initial pruning)     ...  13476 (   0.0 sec)
# of grid points (after weights+screening)   ...  13450 (   0.0 sec)
nearest neighbour list constructed           ...    0.0 sec
Grid point re-assignment to atoms done       ...    0.0 sec
Grid point division into batches done        ...    0.1 sec
Reduced shell lists constructed in    0.1 sec

Total number of grid points                  ...    13450
Total number of batches                      ...      212
Average number of points per batch           ...       63
Average number of grid points per atom       ...     6725
Average number of shells per batch           ...     6.60 (19.41%)
Average number of basis functions per batch  ...    19.60 (19.22%)
Average number of large shells per batch     ...     4.50 (68.18%)
Average number of large basis fcns per batch ...    13.10 (66.84%)
Maximum spatial batch extension              ...  19.50, 19.55, 12.87 au
Average spatial batch extension              ...   0.66,  0.66,  0.47 au

Time for grid setup =    0.117 sec

------------------------------
INITIAL GUESS: MODEL POTENTIAL
------------------------------
Loading Hartree-Fock densities                     ... done
Calculating cut-offs                               ... done
Setting up the integral package                    ... done
Initializing the effective Hamiltonian             ... done
Starting the Coulomb interaction                   ... done (   0.0 sec)
Reading the grid                                   ... done
Mapping shells                                     ... done
Starting the XC term evaluation                    ... done (   0.0 sec)
  promolecular density results
     # of electrons  =     33.999988380
     EX              =    -54.744626740
     EC              =     -1.327449846
     EX+EC           =    -56.072076586
Transforming the Hamiltonian                       ... done (   0.0 sec)
Diagonalizing the Hamiltonian                      ... done (   0.0 sec)
Back transforming the eigenvectors                 ... done (   0.0 sec)
Now organizing SCF variables                       ... done
                      ------------------
                      INITIAL GUESS DONE (   0.2 sec)
                      ------------------
--------------
SCF ITERATIONS
--------------
ITER       Energy         Delta-E        Max-DP      RMS-DP      [F,P]     Damp
               ***  Starting incremental Fock matrix formation  ***
  0   -920.4823503877   0.000000000000 0.00727789  0.00028621  0.0567012 0.7000
  1   -920.4844998769  -0.002149489194 0.00565908  0.00023476  0.0402973 0.7000
                               ***Turning on DIIS***
  2   -920.4860240902  -0.001524213287 0.01262977  0.00058480  0.0285077 0.0000
  3   -920.4896515634  -0.003627473213 0.00499737  0.00014154  0.0029768 0.0000
                      *** Initiating the SOSCF procedure ***
                           *** Shutting down DIIS ***
                      *** Re-Reading the Fockian *** 
                      *** Removing any level shift *** 
ITER      Energy       Delta-E        Grad      Rot      Max-DP    RMS-DP
  4   -920.48971050  -0.0000589376  0.000809  0.000809  0.000679  0.000029
               *** Restarting incremental Fock matrix formation ***
  5   -920.48971946  -0.0000089607  0.000503  0.000597  0.000478  0.000018
  6   -920.48972110  -0.0000016417  0.000130  0.000217  0.000147  0.000007
                  ***Gradient check signals convergence***
              ***Rediagonalizing the Fockian in SOSCF/NRSCF***

               *****************************************************
               *                     SUCCESS                       *
               *           SCF CONVERGED AFTER   7 CYCLES          *
               *****************************************************


Setting up the DFT-NL grid :

General Integration Accuracy     IntAcc      ...  4.340
Radial Grid Type                 RadialGrid  ... Gauss-Chebyshev
Angular Grid (max. acc.)         AngularGrid ... Lebedev-110
Angular grid pruning method      GridPruning ... 3 (G Style)
Weight generation scheme         WeightScheme... Becke
Basis function cutoff            BFCut       ...    1.0000e-10
Integration weight cutoff        WCut        ...    1.0000e-14
Grids for H and He will be reduced by one unit

# of grid points (after initial pruning)     ...   3688 (   0.0 sec)
# of grid points (after weights+screening)   ...   3666 (   0.0 sec)
nearest neighbour list constructed           ...    0.0 sec
Grid point re-assignment to atoms done       ...    0.0 sec
Grid point division into batches done        ...    0.0 sec
Reduced shell lists constructed in    0.0 sec

Total number of grid points                  ...     3666
Total number of batches                      ...       58
Average number of points per batch           ...       63
Average number of grid points per atom       ...     1833
Average number of shells per batch           ...    13.25 (38.97%)
Average number of basis functions per batch  ...    41.25 (40.44%)
Average number of large shells per batch     ...    10.50 (79.25%)
Average number of large basis fcns per batch ...    32.00 (77.58%)
Maximum spatial batch extension              ...  29.83, 22.78, 16.83 au
Average spatial batch extension              ...   1.05,  1.06,  0.75 au

Final grid set up in    0.0 sec

-------------------------------------------------------------------------------
                         DFT-NL dispersion correction                          
-------------------------------------------------------------------------------

SC Energy -920.489721235 
NL    Energy 0.142448960 
SC+NL Energy -920.347272275 
NL done in    0.0 sec
-------------------------------------------------------------------------------

----------------
TOTAL SCF ENERGY
----------------

Total Energy       :         -920.34727228 Eh          -25043.92249 eV

Components:
Nuclear Repulsion  :           74.67466147 Eh            2032.00084 eV
Electronic Energy  :         -995.02193375 Eh          -27075.92333 eV
One Electron Energy:        -1418.77481965 Eh          -38606.82558 eV
Two Electron Energy:          423.75288591 Eh           11530.90225 eV

Virial components:
Potential Energy   :        -1839.13223532 Eh          -50045.33238 eV
Kinetic Energy     :          918.78496305 Eh           25001.40989 eV
Virial Ratio       :            2.00170041


DFT components:
N(Alpha)           :       16.999995263092 electrons
N(Beta)            :       16.999995263092 electrons
N(Total)           :       33.999990526185 electrons
E(X)               :      -42.139522547923 Eh       
E(C)               :       -1.509727048890 Eh       
NL Energy, E(C,NL) :        0.142448959858 Eh       
E(XC)              :      -43.506800636955 Eh       
DFET-embed. en.    :        0.000000000000 Eh       

---------------
SCF CONVERGENCE
---------------

  Last Energy change         ...   -1.3168e-07  Tolerance :   1.0000e-06
  Last MAX-Density change    ...    5.3711e-05  Tolerance :   1.0000e-05
  Last RMS-Density change    ...    1.1695e-06  Tolerance :   1.0000e-06
  Last Orbital Gradient      ...    1.1317e-05  Tolerance :   5.0000e-05
  Last Orbital Rotation      ...    9.0663e-06  Tolerance :   5.0000e-05

             **** THE GBW FILE WAS UPDATED (180_cl.gbw) ****
             **** DENSITY FILE WAS UPDATED (180_cl.scfp) ****
             **** ENERGY FILE WAS UPDATED (180_cl.en.tmp) ****
             **** THE GBW FILE WAS UPDATED (180_cl.gbw) ****
             **** DENSITY FILE WAS UPDATED (180_cl.scfp) ****
----------------
ORBITAL ENERGIES
----------------

  NO   OCC          E(Eh)            E(eV) 
   0   2.0000    -101.934862     -2773.7886 
   1   2.0000    -101.934854     -2773.7884 
   2   2.0000      -9.703713      -264.0514 
   3   2.0000      -9.703693      -264.0509 
   4   2.0000      -7.411369      -201.6736 
   5   2.0000      -7.411285      -201.6713 
   6   2.0000      -7.398698      -201.3288 
   7   2.0000      -7.398698      -201.3288 
   8   2.0000      -7.398691      -201.3286 
   9   2.0000      -7.398691      -201.3286 
  10   2.0000      -1.049468       -28.5575 
  11   2.0000      -0.897882       -24.4326 
  12   2.0000      -0.562203       -15.2983 
  13   2.0000      -0.512895       -13.9566 
  14   2.0000      -0.512895       -13.9566 
  15   2.0000      -0.412403       -11.2220 
  16   2.0000      -0.412403       -11.2220 
  17   0.0000      -0.055163        -1.5011 
  18   0.0000       0.049994         1.3604 
  19   0.0000       0.067344         1.8325 
  20   0.0000       0.067344         1.8325 
  21   0.0000       0.071380         1.9424 
  22   0.0000       0.091275         2.4837 
  23   0.0000       0.091275         2.4837 
  24   0.0000       0.101268         2.7556 
  25   0.0000       0.199081         5.4173 
  26   0.0000       0.199085         5.4174 
  27   0.0000       0.234640         6.3849 
  28   0.0000       0.234640         6.3849 
  29   0.0000       0.234754         6.3880 
  30   0.0000       0.296229         8.0608 
  31   0.0000       0.296239         8.0611 
  32   0.0000       0.299817         8.1584 
  33   0.0000       0.308401         8.3920 
  34   0.0000       0.349933         9.5222 
  35   0.0000       0.349933         9.5222 
  36   0.0000       0.510773        13.8988 
  37   0.0000       0.510773        13.8988 
  38   0.0000       0.550225        14.9724 
  39   0.0000       0.560766        15.2592 
  40   0.0000       0.560766        15.2592 
  41   0.0000       0.621814        16.9204 
  42   0.0000       0.621853        16.9215 
  43   0.0000       0.654522        17.8104 
  44   0.0000       0.654522        17.8104 
  45   0.0000       0.672478        18.2990 
  46   0.0000       0.672506        18.2998 
  47   0.0000       0.676935        18.4203 
  48   0.0000       0.732161        19.9231 
  49   0.0000       0.746970        20.3261 
  50   0.0000       0.746970        20.3261 
  51   0.0000       0.812404        22.1066 
  52   0.0000       0.904619        24.6159 
  53   0.0000       1.335912        36.3520 
  54   0.0000       1.847010        50.2597 
  55   0.0000       1.847010        50.2597 
  56   0.0000       1.882856        51.2351 
  57   0.0000       1.882907        51.2365 
  58   0.0000       1.939985        52.7897 
  59   0.0000       1.974893        53.7396 
  60   0.0000       1.974917        53.7402 
  61   0.0000       1.977930        53.8222 
  62   0.0000       1.977930        53.8222 
  63   0.0000       1.981942        53.9314 
  64   0.0000       2.009017        54.6681 
  65   0.0000       2.009017        54.6681 
  66   0.0000       2.037624        55.4466 
  67   0.0000       2.037658        55.4475 
  68   0.0000       2.129957        57.9591 
  69   0.0000       2.129957        57.9591 
  70   0.0000       2.162491        58.8444 
  71   0.0000       2.162491        58.8444 
  72   0.0000       2.273658        61.8694 
  73   0.0000       2.273667        61.8696 
  74   0.0000       2.325466        63.2791 
  75   0.0000       2.330251        63.4093 
  76   0.0000       2.330251        63.4093 
  77   0.0000       2.391955        65.0884 
  78   0.0000       2.405705        65.4626 
  79   0.0000       2.405705        65.4626 
  80   0.0000       2.461518        66.9813 
  81   0.0000       2.757834        75.0445 
  82   0.0000       2.757834        75.0445 
  83   0.0000       3.760315       102.3234 
  84   0.0000       8.182991       222.6705 
  85   0.0000       8.183046       222.6720 
  86   0.0000       8.204654       223.2600 
  87   0.0000       8.204654       223.2600 
  88   0.0000       8.218817       223.6454 
  89   0.0000       8.218869       223.6468 
  90   0.0000       8.235991       224.1127 
  91   0.0000       8.244582       224.3465 
  92   0.0000       8.244582       224.3465 
  93   0.0000       8.353854       227.3199 
  94   0.0000      10.851640       295.2881 
  95   0.0000      10.851640       295.2881 
  96   0.0000      10.966924       298.4252 
  97   0.0000      10.966924       298.4252 
  98   0.0000      10.982512       298.8493 
  99   0.0000      11.391326       309.9737 
 100   0.0000      24.807309       675.0412 
 101   0.0000      25.467553       693.0074 

                    ********************************
                    * MULLIKEN POPULATION ANALYSIS *
                    ********************************

-----------------------
MULLIKEN ATOMIC CHARGES
-----------------------
   0 Cl:    0.000000
   1 Cl:   -0.000000
Sum of atomic charges:   -0.0000000

--------------------------------
MULLIKEN REDUCED ORBITAL CHARGES
--------------------------------
  0 Cls       :     5.972418  s :     5.972418
      pz      :     2.997479  p :    10.954472
      px      :     3.978497
      py      :     3.978497
      dz2     :     0.027299  d :     0.067366
      dxz     :     0.020034
      dyz     :     0.020034
      dx2y2   :    -0.000000
      dxy     :     0.000000
      f0      :     0.002803  f :     0.005743
      f+1     :     0.001470
      f-1     :     0.001470
      f+2     :     0.000000
      f-2     :     0.000000
      f+3     :     0.000000
      f-3     :     0.000000
  1 Cls       :     5.972418  s :     5.972418
      pz      :     2.997479  p :    10.954473
      px      :     3.978497
      py      :     3.978497
      dz2     :     0.027299  d :     0.067366
      dxz     :     0.020034
      dyz     :     0.020034
      dx2y2   :     0.000000
      dxy     :     0.000000
      f0      :     0.002803  f :     0.005743
      f+1     :     0.001470
      f-1     :     0.001470
      f+2     :     0.000000
      f-2     :     0.000000
      f+3     :     0.000000
      f-3     :     0.000000


                     *******************************
                     * LOEWDIN POPULATION ANALYSIS *
                     *******************************

----------------------
LOEWDIN ATOMIC CHARGES
----------------------
   0 Cl:    0.000000
   1 Cl:   -0.000000

-------------------------------
LOEWDIN REDUCED ORBITAL CHARGES
-------------------------------
  0 Cls       :     5.713726  s :     5.713726
      pz      :     3.120590  p :    10.900318
      px      :     3.889864
      py      :     3.889864
      dz2     :     0.158823  d :     0.372431
      dxz     :     0.106804
      dyz     :     0.106804
      dx2y2   :     0.000000
      dxy     :     0.000000
      f0      :     0.006861  f :     0.013525
      f+1     :     0.003332
      f-1     :     0.003332
      f+2     :     0.000000
      f-2     :     0.000000
      f+3     :     0.000000
      f-3     :     0.000000
  1 Cls       :     5.713726  s :     5.713726
      pz      :     3.120590  p :    10.900318
      px      :     3.889864
      py      :     3.889864
      dz2     :     0.158823  d :     0.372431
      dxz     :     0.106804
      dyz     :     0.106804
      dx2y2   :     0.000000
      dxy     :     0.000000
      f0      :     0.006861  f :     0.013525
      f+1     :     0.003332
      f-1     :     0.003332
      f+2     :     0.000000
      f-2     :     0.000000
      f+3     :     0.000000
      f-3     :     0.000000


                      *****************************
                      * MAYER POPULATION ANALYSIS *
                      *****************************

  NA   - Mulliken gross atomic population
  ZA   - Total nuclear charge
  QA   - Mulliken gross atomic charge
  VA   - Mayer's total valence
  BVA  - Mayer's bonded valence
  FA   - Mayer's free valence

  ATOM       NA         ZA         QA         VA         BVA        FA
  0 Cl    17.0000    17.0000     0.0000     1.0166     1.0166    -0.0000
  1 Cl    17.0000    17.0000    -0.0000     1.0166     1.0166    -0.0000

  Mayer bond orders larger than 0.100000
B(  0-Cl,  1-Cl) :   1.0166 

-------
TIMINGS
-------

Total SCF time: 0 days 0 hours 0 min 1 sec 

Total time                  ....       1.629 sec
Sum of individual times     ....       1.432 sec  ( 87.9%)

Fock matrix formation       ....       1.188 sec  ( 72.9%)
  XC integration            ....       0.097 sec  (  8.2% of F)
    Basis function eval.    ....       0.009 sec  (  8.9% of XC)
    Density eval.           ....       0.013 sec  ( 13.2% of XC)
    XC-Functional eval.     ....       0.007 sec  (  7.4% of XC)
    XC-Potential eval.      ....       0.022 sec  ( 23.1% of XC)
Diagonalization             ....       0.007 sec  (  0.4%)
Density matrix formation    ....       0.002 sec  (  0.1%)
Population analysis         ....       0.003 sec  (  0.2%)
Initial guess               ....       0.101 sec  (  6.2%)
Orbital Transformation      ....       0.000 sec  (  0.0%)
Orbital Orthonormalization  ....       0.000 sec  (  0.0%)
DIIS solution               ....       0.002 sec  (  0.1%)
SOSCF solution              ....       0.002 sec  (  0.1%)
Grid generation             ....       0.127 sec  (  7.8%)

-------------------------   --------------------
FINAL SINGLE POINT ENERGY      -920.347272275206
-------------------------   --------------------


                            ***************************************
                            *     ORCA property calculations      *
                            ***************************************

                                    ---------------------
                                    Active property flags
                                    ---------------------
   (+) Dipole Moment


------------------------------------------------------------------------------
                       ORCA ELECTRIC PROPERTIES CALCULATION
------------------------------------------------------------------------------

Dipole Moment Calculation                       ... on
Quadrupole Moment Calculation                   ... off
Polarizability Calculation                      ... off
GBWName                                         ... 180_cl.gbw
Electron density file                           ... 180_cl.scfp
The origin for moment calculation is the CENTER OF MASS  = ( 0.000000,  0.000000  0.000000)

-------------
DIPOLE MOMENT
-------------
                                X             Y             Z
Electronic contribution:     -0.00000      -0.00000      -0.00000
Nuclear contribution   :      0.00000       0.00000       0.00000
                        -----------------------------------------
Total Dipole Moment    :     -0.00000      -0.00000      -0.00000
                        -----------------------------------------
Magnitude (a.u.)       :      0.00000
Magnitude (Debye)      :      0.00000



--------------------
Rotational spectrum 
--------------------
 
Rotational constants in cm-1:     0.000000     0.226737     0.226737 
Rotational constants in MHz :     0.000000  6797.405627  6797.405627 

 Dipole components along the rotational axes: 
x,y,z [a.u.] :    -0.000000    -0.000000    -0.000000 
x,y,z [Debye]:    -0.000000    -0.000000    -0.000000 

 

Timings for individual modules:

Sum of individual times         ...        2.699 sec (=   0.045 min)
GTO integral calculation        ...        0.683 sec (=   0.011 min)  25.3 %
SCF iterations                  ...        2.017 sec (=   0.034 min)  74.7 %
                             ****ORCA TERMINATED NORMALLY****
TOTAL RUN TIME: 0 days 0 hours 0 minutes 3 seconds 155 msec
